192
Lattice="12.779555550307284 0.0 0.0 -5.291772105638411e-07 12.779555550307284 0.0 -5.291772105638411e-07 -5.291772105638411e-07 12.779555550307284" Properties=species:S:1:pos:R:3:forces:R:3 energy=-30023.604129079984 pbc="T T T"
O       11.55325986      12.75107629      10.64568020      -0.52838231      -0.09928418      -2.60150408
H       12.17742491       0.19054454      11.30762797       0.16189055       0.20202393       2.05634789
H       10.65286484      12.42870577      10.77585779       0.54492479      -0.06888963       0.48336743
O        0.49090764      12.33466569       2.44812195       1.49650557      -0.43159929       0.14638834
H        1.21471623      11.72891653       2.92148684      -1.13675164       1.33528196      -2.14674275
H        0.71326791      12.46129779       1.47936252      -0.36784827      -1.32791318       1.75744170
O        6.06310081       0.12570340       7.29285573      -0.27411973      -2.69018658       1.29942021
H        7.04641737      12.77021346       7.00434831      -2.14048468      -0.94654656       1.11807000
H        5.53715105      11.99914617       7.61374879       2.75842366       3.02776216      -1.43489164
O        9.70650654       8.76727044       0.33977305       1.99859063       3.14358523      -1.41229165
H       10.28583864       9.42485726      12.55014188      -1.08265048      -2.53909312       1.06825745
H        9.15577594       9.47829940       0.71146818      -0.68072018      -0.54113498       0.15122304
O        4.44707351       2.54959697      10.72684540       3.00308471       2.77290411      -1.79039296
H        4.65348967       3.53767666      11.03895412      -0.76972150      -3.07379006      -0.97572344
H        5.33786397       2.44783619       9.94096432      -2.66799796       0.56148783       3.47346293
O       11.39949314       6.47300148       6.27318416      -1.30903099       1.09162878       9.96364256
H       11.01038913       6.12723709       5.62420123      -4.61089849      -4.07597015      -8.68163901
H       12.15533811       6.87358862       6.10564666       5.44441420       3.34791081      -1.77344939
O       10.72183991       0.58095191       5.95229110      -1.94075109       1.42732232       1.61986196
H       11.41532665       0.70017553       6.58174739       1.06017390      -0.14966598      -0.25951175
H       10.83921142       0.32287218       5.02721525       1.23534831      -0.73105724      -0.30218538
O       11.90194584      10.39098721       6.49744946       3.19204538      -2.93401459       0.75549301
H       12.60879112       9.72882776       6.02431212      -2.37732444       1.85616693       0.77582015
H       11.45619342      10.95509011       5.91318490      -0.63953625       0.97536863      -1.56403302
O        2.66723200       7.07447488       9.61139276       1.23862904      -0.49106429       1.42833533
H        3.33044980       6.52741148      10.15628653      -0.99625627       1.29782098      -1.23575455
H        2.88435341       8.02768179       9.68886430       0.22856389      -0.29862286       0.15527510
O        4.14764123      10.66610538      12.22797298      -0.87768213      -2.97865923       1.04232016
H        5.07290759      10.43564871      12.37116833       0.45278621       0.49386422      -0.17777226
H        3.70662018       9.89610015       0.06422095       0.56637293       2.17455180      -1.52972422
O        6.54849390       1.35874186       2.98944377       9.43615500       3.36823795       1.02686268
H        5.73054468       1.22802451       2.78834056      -8.27982698      -1.04080835      -2.42317749
H        6.91865335       2.17709325       2.47242705      -1.23852620      -2.65664911       1.18861594
O        7.79204605       2.99273102       0.84175161      -0.11353067       0.00786089      -0.13211512
H        8.35886364       2.65225840       0.14159724      -0.37843402      -0.58811418      -0.14898618
H        8.21846763       3.81734787       1.03458378       0.35201285       0.60323227       0.43308796
O        7.49695779      10.20910847       5.13278610       0.18578381       0.19595818      -0.05212706
H        8.05815022       9.45529554       4.88740663      -0.51693061      -0.42639075       0.09749007
H        6.56147832       9.99013494       5.04383142       0.23753498      -0.16910764       0.06675304
O        0.56412460       8.30956443       5.60353157       1.18274354      -2.19360882      -2.91709673
H        0.76007892       7.77340208       4.67509015      -0.70599927       2.25099584       2.86480049
H        1.27549753       7.97692364       6.21637170      -0.46812490       0.07761133      -0.39396657
O        0.73214789       1.07302268      12.31485170      -1.27625457       2.54870904      -4.43992011
H        1.12968169       1.45682962      11.36465211      -1.01084985      -0.94872171       3.26112579
H        1.47117033       0.73512716      12.73007378       2.52530172      -1.14038204       0.99235334
O       10.79273908      12.04333299       3.95572665      -0.78089037      -0.29874318       0.24890235
H       11.51623016      12.13726195       3.35638054       0.99052785       0.12057189      -1.17162609
H        9.95806786      12.24341490       3.51381076      -0.13138544      -0.40332898      -0.44680788
O        8.57321057       6.38574015      12.29252201      -0.21228212       0.47669593      -0.27452802
H        8.19056253       6.09786775      11.37588125       0.80720818       1.16528575       1.38291422
H        9.16319024       7.19929720      12.28580146      -1.19060083      -1.06143374      -0.74229297
O        4.38188417       6.94829733       2.28475436       0.22489338       0.48755576       0.21222504
H        4.43432563       6.94760940       3.28966188       0.11711684      -0.90637050      -1.38288337
H        4.58709909       6.12913101       1.78611067      -0.04954105       0.04624746       1.44619421
O        8.63907250      11.96623187       7.00257028      -0.87739416      -1.36860346      -0.72588418
H        9.20920802      12.60738298       6.57742931       0.91823357       0.14081882      -0.22404286
H        8.53302538      11.20268208       6.36422381      -0.11089837       1.24828096       0.99382915
O        3.88515505       0.60075372       2.50919958      -0.60515031       0.07190193      -2.44308812
H        3.13372341       1.07875949       2.90444733       0.59757584      -0.13273527      -0.41276545
H        3.76630185       0.61752864       1.39187894       0.42571404       0.06659106       2.63402340
O        4.13538179       9.78390400       5.07531746       1.15282104       0.09135696       2.13244227
H        4.38277213       8.83217879       4.89375676      -0.40816163       1.22057475       0.73245592
H        4.42198416      10.00679344       6.06186253      -0.88496863      -0.83845223      -2.62500911
O        7.21594617       3.79396353       6.65687997      -8.04755350       0.62757548      -0.25496655
H        6.58966494       3.04334682       6.34201953       1.63150392       1.16791856      -0.24563190
H        8.07707624       3.67396730       6.72191585       6.34764281      -2.18825578       0.23412673
O        3.77795962       0.55629701      12.70701382      -0.06904955       0.62371882      -0.32617994
H        3.85153589      12.49321035      12.22119951       0.13298004       0.26918784       0.44425169
H        4.20184644       1.29781187      12.21880763      -0.36290764      -0.65260774      -0.07217653
O       11.10379949       2.88179325      12.34813854       1.38543904       1.57420945       3.04096735
H       10.71120345       3.62476917       0.15469967       0.28095835      -1.38301192      -0.98375042
H       11.89724833       2.64550028       0.18322232      -1.75012434       0.04524062      -2.20940053
O       10.86401501       7.43445349       2.46921495      -6.31540117      -0.92007962       0.95035179
H       10.65878951       7.98326318       1.73656910      -0.83740322       1.02836421      -1.39471044
H       11.73215668       7.38566336       2.45810223       6.88963139      -0.17955866       0.53981858
O        4.64983305       7.16127052       5.08569462      -2.17093169      -0.11128712       0.80739330
H        4.01532312       6.96346408       5.84068763       1.02705809       0.23362896      -1.39213934
H        5.52307599       6.88969678       5.35500878       1.09089858      -0.64856596       0.32059808
O        3.22092176       9.86619158       9.56752397       9.25293817      -2.84926074       3.74596903
H        2.46816718      10.25868232       9.64917601      -7.69032440       3.98067477       0.34363311
H        3.71781916      10.19295851      10.60407629      -1.65959065      -1.14906208      -3.32644210
O        5.33397028       4.46871210       0.96896581     -15.25188794       8.38771047       3.70712995
H        6.01137003       4.09008580       0.76316879      11.50311641      -7.97088320      -4.16459608
H        4.30133388       4.20481142       0.80867803       2.98314838      -0.47690985       0.76193105
O        7.16892295       5.92908139      10.12861056      -0.80334124      -2.73513461      -0.89643061
H        7.29835970       6.45206722       9.31362474      -0.19028376       0.37492035      -0.15177069
H        6.92804149       4.98180126       9.80798209       1.00461750       2.04956018       0.71668478
O        1.13101521      10.99377350       0.02775005      -1.79758691      -1.59512281      -1.98493807
H        0.41289899      10.62334892      12.14022481       2.03283773       1.02355110       2.03662239
H        1.46639715      10.17836433       0.42971306      -0.17739379       0.48300491      -0.05393609
O        0.73920765       7.29423159       2.89115440       0.78224791       5.00504349       0.88417673
H        0.77442968       6.44029832       2.64707670       0.22187491      -5.10880293      -0.95483065
H        1.48345306       7.71842004       2.42484873      -0.57503241       0.04179586       0.25341463
O        1.09034318       0.90172326       7.94130948      -1.11471214      -2.63035700      -3.29579455
H        0.81990135      12.76826450       8.16139428       0.42560297       0.75307617      -0.11238190
H        1.26889287       1.31320087       8.73279984       0.81095171       1.64286819       2.96535634
O        6.77358471       2.95385555       9.60849287      -1.32137743       0.33705211      -2.03805192
H        6.63504612       2.83214479       8.64946501       0.37960541       0.49178265       0.39448027
H        7.50845311       2.37609987       9.80619347       0.82686170      -0.31026070       0.90854565
O        1.12754487       2.05552484       3.21181991       1.34805006      -2.32197372       3.20482377
H        1.38003119       1.83506962       4.27409024      -0.75829037       0.83919271      -4.27031985
H        1.15782439       1.10723928       2.79350533      -0.95791083       1.88747268       1.11868707
O        7.04214268       7.81353435       1.52505697       1.34145261      -1.54123762      -2.45999055
H        7.45675302       7.08776781       0.82109253      -1.02313458       2.29275056       1.69498446
H        6.09068205       7.64705520       1.55337853      -0.20862241      -0.40411163       0.49433010
O       12.07513654       4.25291257       7.57617721      -0.49466126      -0.08034801      -0.56700542
H       12.76841161       4.13617608       6.93153353       2.12357196      -1.68762596       0.06839289
H       11.81716265       5.01259938       7.04038528      -1.35351622       1.19309994       1.06470418
O        5.37837672       1.84490226       5.68198738      -0.20670025       1.11417735       2.09009620
H        5.60168950       1.36626147       4.87942135       0.39606099      -0.14979505       0.39467619
H        5.57925239       1.31736550       6.58090071      -0.41963903      -0.37509210      -2.65841288
O        1.77074337       2.38442488      10.04182550       3.21836320      -1.46083408       0.72544710
H        1.18600255       3.09287675      10.00203137      -1.08210541       2.13124413      -0.03810118
H        2.75824096       2.68966488      10.19973198      -1.99157152      -0.73682680      -0.16599455
O        1.39234991       4.20725569       5.82917273      -1.04125058      -0.11778533      -2.39577467
H        1.86654561       3.31368705       5.53997738      -1.52444317       2.23757469       0.88464982
H        0.75818394       4.58260109       5.08091615       2.22360331      -1.58214388       1.51789715
O        8.65860972       7.87849668       4.18978173      -0.78412996       0.40194470      -4.95503553
H        9.56604280       7.78377395       3.86402024       0.73280045      -0.13678218       0.73304214
H        8.30686563       7.94824223       3.14285754       0.15509770      -0.41003802       4.06528978
O        0.27774395      11.00966469       9.18156328       1.73399838      -1.07011378      -0.47618325
H       12.52965690      11.71800014       9.53611201      -1.22690481       0.56784874       0.37479951
H        0.01918797      10.74371081       8.29720232      -0.62083404       0.34651274      -0.23079458
O       10.09100776       4.78873678       4.11537942       0.35533574       4.52788270      -5.32475505
H        9.60019590       4.77516867       3.23027761       0.75419203       0.24720182       1.90979500
H        9.78318538       4.08363460       4.54681760      -1.70424557      -4.58758886       3.22897157
O        7.18789713       7.69128330       7.90675421      -1.18697557      -1.98701552      -1.09436443
H        7.97501648       8.20971822       7.95233753       0.91642351       0.52788866      -0.39238945
H        7.19519978       7.09267804       7.03449025       0.27163244       1.35318198       1.64425659
O        2.50537786       1.81727868       5.70085784      -1.36262821      -0.57423022      -0.16306760
H        3.40847169       2.00640662       5.81262007       2.65734845       0.50695216      -0.59971500
H        2.33911038       1.31223195       6.49996835      -1.16364538      -0.20810511       0.50286256
O        8.13996208      11.71345927       2.98991474       4.32942437      -2.47126741      -2.41614296
H        7.50770115      12.30153231       3.14832394      -4.09866271       4.65023122       0.65810990
H        7.98030931      11.08151055       3.65343946      -0.17731203      -1.57284677       1.57329414
O        7.80373399       9.62962344      10.61171761       0.21336610      -1.11954068       1.13438108
H        8.25422255       8.78247423      10.36834901      -0.57950099       1.30125598       0.67105798
H        7.67329181       9.65199705      11.60937540       0.40376556       0.01938766      -1.77467838
O        2.09787437       6.81281738       7.12053446       3.06976371       8.95577005       2.43629012
H        2.27853547       6.92172205       8.09931121      -0.07499960      -0.71308523      -0.70880177
H        1.85377550       6.03635566       6.89489330      -2.52365107      -8.72046267      -2.10003608
O       10.00959861       8.70353634       7.60311233       0.16246854      -3.36073033      -0.87461737
H       10.75637349       9.28393790       7.44790465       0.31510928       0.62420733      -0.39126485
H       10.27984941       7.84282960       7.08457158      -0.61492050       2.48983592       1.32153684
O        5.09665865      10.16221279       7.66886259      -5.60670224       9.63850083       0.35418029
H        5.47216809       9.43528205       7.64892320       7.67278947     -10.85596969      -1.39752837
H        4.50553595       9.84227225       8.34901406      -1.81255073       1.40759167       0.99157686
O       12.65209951       4.67384182       3.40405941      -3.66449077       0.57785548      -0.55784201
H       11.55088174       4.78560405       3.37871182       3.97752774      -0.58694176       0.96219943
H       12.76645471       3.72830798       3.25387892       0.34392930      -0.30929191      -0.05509823
O        9.95780804       4.88617365       1.08561234       3.46477260      -0.18737276       4.03325384
H       10.61408832       5.48698558       1.63539571      -2.01357502      -1.42540942      -1.88562149
H        9.63233759       5.43798377       0.41513476      -1.40333906       1.86013157      -1.94238117
O        9.06110032      11.98656233       9.74564502      -0.95328799      -1.88873767      -0.85265501
H        8.61140552      11.19665951      10.15464608       0.40833081       0.83194734       0.06141286
H        8.99923950      11.65709660       8.79413147       0.35585562       1.35052346       1.13963128
O       12.00303615       9.51767600      11.19243668      -1.67073381      -4.39312603       2.01066967
H       11.92103485       8.52112948      10.88572557      -1.16413903       1.81619656       2.22368044
H       12.44950190       9.60546650      10.41729790       2.36796562       2.80234839      -3.82274732
O        7.28943777      10.37813879       0.56127181      -1.40603872      -6.37628490      -1.86173594
H        7.34600682      10.99870490       1.21997572       0.27504738       2.09745984       2.84592345
H        7.03125221       9.25919357       1.00580712       1.19703373       3.48161333      -0.92548408
O       10.48876751       7.28190070      10.40024781       1.10720966      -0.00896955      -3.73877509
H       11.00312776       6.43389422      10.49079003      -0.78999722       0.75946279      -0.62407363
H       10.52374613       7.49399493       9.33914167      -0.27269019      -0.62838794       3.85253612
O        2.98469758       8.91512255       1.22509816       0.48999008      -0.62017070      -0.18199452
H        3.50503753       8.14225924       1.52261746      -0.01551404      -0.83185478      -0.59659368
H        3.26230395       9.46054550       1.95560613      -0.62624364       1.68226264       0.80400459
O        2.78976352      11.03880648       3.02114678       1.46479358       0.70406580       1.70274919
H        2.93255669      10.82321968       4.02272049       0.39642917       0.40249132      -2.66546799
H        3.47562481      11.81362775       2.72951722      -1.93869935      -1.40092223       1.33164642
O        2.65036871       4.28074729       0.98151789      -2.84834543       0.41716769      -1.53472245
H        1.88220449       3.87698508       1.55530474       2.48484284       1.10364097      -1.86846195
H        2.22972046       4.68837250       0.04585638       0.59082927      -1.52379011       3.02999902
O        7.15445419       6.21347180       5.70712330       2.64279086      -0.41312592      -0.55000529
H        7.30611638       5.20840553       6.03584818      -0.62258754       2.09044587      -0.96437459
H        7.97999710       6.65152470       5.18538103      -2.57829730      -1.54328936       1.29220569
O        9.80088583       3.11017026       6.35367201      -3.98887145       4.06879677       0.04492026
H       10.62074537       3.32506913       6.66218233       3.56271621       1.55662310       1.96161302
H        9.94301224       2.28715153       6.06818091       0.42096470      -5.63359598      -1.82640898
O        1.47557784       5.44997440      11.53876729      -3.84695169      -4.20685988      -0.27500110
H        1.94342341       6.21627591      11.45727929       1.11532921       3.21602864      -1.12558791
H        0.64307626       5.31445211      10.90182843       2.32243652       0.83937783       1.71213372
O       11.76292199       4.77855012      10.19922397      -1.65138883       1.00274059       7.62080176
H       11.33846895       4.20930890      11.07485350       1.99881174       1.08018737      -3.80864739
H       11.91569545       4.31145069       9.44281807       0.17756605      -2.38724375      -3.39666922
O        8.60378749       1.76223473      11.05241639       1.17787901       0.31240191      -0.01858136
H        9.56789545       1.77668126      11.02860341       0.43270744       1.19455005       0.58348105
H        8.61553522       0.92639932      10.61346389      -1.20029903      -1.98280405      -0.67407131
O        4.61149363       5.66727625      11.26755867       0.37067494      -0.36232554       1.56346738
H        5.50305140       5.81354084      10.92867359       0.19532878       0.42034609      -0.45795413
H        4.81676147       5.50116753      12.23410085      -0.43074260       0.12790314      -1.26442749
192
Lattice="12.99187203072971 0.0 0.0 -5.291772105638411e-07 12.99187203072971 0.0 -5.291772105638411e-07 -5.291772105638411e-07 12.99187203072971" Properties=species:S:1:pos:R:3:forces:R:3 energy=-30025.69586832368 pbc="T T T"
O       12.96626885      12.31638155       7.07999949       0.14117260       0.04575741      -0.41792359
H       12.21991731      11.71886111       7.28039890      -0.46876151      -0.01032607       0.37504890
H        0.30920724      11.94053344       6.26818873       0.67414330      -0.35974518      -0.23650603
O        1.31767242      12.79583251      12.19305257      -3.12079497       1.68093081       1.03323388
H        0.38891403       0.30525005      12.40585060       2.94253523      -1.48003508      -0.46029641
H        1.16235891      12.42943021      11.32422297       0.22139102      -0.03390874      -0.49110954
O        6.93486734       0.12149327       9.24218582      -0.55465384      -2.12500150      -4.97137746
H        7.13140376       0.58294691       9.96075555       1.71225713       3.58723425       4.86307230
H        6.39441813      12.42483219       9.56223219      -0.91157955      -1.73560275       0.36889985
O       11.81965349       6.01403497      11.89095589      -1.58243184       1.41785551       1.71416489
H       12.44015081       5.79162179      11.22079528       0.71998607      -0.44517472      -1.22334126
H       11.73591649       6.98777395      11.99010253       0.63121102      -0.32742024      -0.21698210
O        2.52453037       5.36766670       8.22336093      -1.06986182       0.28445608      -1.47921232
H        3.05648576       5.22944561       8.96113980       1.26063769       0.02686752       2.62474171
H        2.99632361       4.80393422       7.59480424      -0.31813187       0.03943713      -0.97449959
O        9.45256551       6.09289348       3.59879662      -1.24851236       2.44054273      -1.32924501
H        9.27339140       7.10949582       3.38936945       0.37516409      -2.79759699       0.93006579
H        8.83289370       5.64097615       2.96223877       0.77672004       0.24271627       0.69861506
O        9.60579459       2.61441059       7.38323919       3.52519867      -2.77961984       0.02774066
H       10.72473980       2.34521815       7.33878831      -4.23491062       0.68510134      -0.31388544
H        9.13768443       1.70925297       7.45769443       1.09171620       1.94449976      -0.32151082
O        1.81422480       7.94943764       4.06167322      -2.84913219       3.26132633      -0.90854565
H        2.51653821       7.45751451       4.32288038       3.36478753      -2.72258762       1.28491919
H        1.91306981       8.76929190       4.60356127      -0.60398817      -0.66215682      -0.29701694
O        4.15791362       8.04368410       9.48243227      -0.44566940       0.25104407      -0.46443074
H        3.22216956       7.84360220       9.45671426      -0.31871603      -0.02051689       0.12963709
H        4.58146706       7.21435758       9.66399297       0.30258493      -0.50939214       0.43698833
O        5.82761483      11.11508049      12.46834643       0.00014038      -2.17715890       0.78080809
H        6.83278694      10.96537626      12.19126925      -2.31685723       0.30949245       1.53976695
H        5.48910070      10.38127099       0.14286726       1.46769378       1.67912589      -1.82802877
O        4.82079380       1.97341824       5.20978139      -0.56464515      -1.10398550      -0.01438429
H        4.79020736       1.06198987       4.83068942       0.63434776       0.26066977       0.13311888
H        5.68393475       2.15275639       5.56202291       0.62533862      -0.01771079      -0.10079908
O        7.20214576       1.83297566       1.45271845      -0.05230293       2.42737353       1.39527094
H        6.39467425       1.59733305       1.03980147      -1.06603602      -0.83585542      -0.84068909
H        7.84874739       1.17229792       1.37313019       1.02923838      -1.50859489      -0.78072068
O        6.03918041       9.63909995       4.24700696       0.42963291      -1.03773331       0.43569146
H        5.72982341       9.20104705       3.45959127      -0.47346405       0.34324024      -1.39278726
H        6.08093249       8.83083468       4.77539040       0.02635638       0.59732387       0.70580901
O        1.04534777       7.89696496       7.84675610       6.74251286      -0.07349139      -0.91530251
H        0.27216695       7.48997477       7.90173761      -6.26562461      -2.15069710       0.59406371
H        1.57314912       7.05282147       7.60375792      -0.50405247       2.20995075       0.59380146
O        1.92933778       1.28199000       2.23277857       6.49203597      -1.37506207       1.81678277
H        1.92326282       0.42365716       2.95158644       1.68356362       1.50972618      -1.00876212
H        1.07381169       1.17932433       2.22490441      -7.77805045       0.48783447      -1.16539373
O        8.16073863      12.86048844       3.75404663       3.07641258       2.56933444      -0.80177287
H        9.23470378      12.89562581       3.67789803      -2.96235844      -0.68538416      -0.09762685
H        7.97637382       0.77181607       3.33917170      -0.17130953      -1.92572556       0.91857810
O        9.11796676       5.99372568      12.37322154      -1.27872283      -0.02607664       0.64905962
H        8.39050685       5.79660716      11.73127666       1.64916226       0.65333793       0.04722088
H       10.01111206       6.19946977      12.04375581      -0.38389453      -1.06085781      -0.96875575
O        2.28063789       8.26396946       1.23000892       0.89495480       7.03484731       0.58087910
H        2.34826674       8.24714163       2.18078162      -0.43028649       1.20642340       1.33132760
H        2.20644724       7.41241750       1.17783205      -0.74945606      -8.36297646      -1.93699728
O       10.73078301      10.95666759       7.35652633      -0.90471471       8.09198217      -4.22453364
H       10.03338036      11.76906045       7.53782244       2.30055129      -2.99876012      -1.25681703
H       10.52503891      10.37885900       7.96481553      -1.50700595      -5.40178530       5.40543627
O        5.94024650       6.53591006       0.37825534      -2.02328865       4.97695161      -3.00287903
H        5.27787485       6.29915565      12.72849630      -0.14706917      -0.78091608      -0.16122412
H        6.30760132       5.87681985       0.83311543       2.13025683      -4.50865599       2.64425639
O        1.52451668      10.00975683       6.12336351      -4.88090548      -1.38264168      -3.37798758
H        2.27483705      10.36393514       6.38403620       5.95410973       3.13562509       1.48697191
H        1.28300020       9.52952851       6.87849939      -1.03518792      -1.73798873       1.49840304
O        6.10823010       3.18320836       7.82014907       1.97887541       2.45060088      -1.20151259
H        6.60486291       3.84869104       8.35837521       0.08908616      -0.02718633      -0.94160490
H        5.79051210       2.75398214       8.54924943      -1.79955638      -2.53925253       2.77558835
O        4.92698327       0.81587431      12.84327907      -0.27119741      -0.21155758       0.70858580
H        4.04906293       1.06783198       0.17460361       0.23233467      -0.48471829       0.11403460
H        5.06102385      12.86239136       0.08418945      -0.15991183       0.56586900      -0.61709052
O       10.73706910      12.75605426       2.93514490       0.64786148       4.41306237      -0.01125218
H       11.21068324       0.71267523       2.95170815      -1.95892879      -1.68277172      -0.42133648
H       11.54051886      12.31507078       3.10707458       1.36817665      -2.30914392       0.29127053
O       12.43109394       5.91960964       4.20982696       0.94271047      -2.41083106       2.86258420
H       11.62551689       5.98956687       3.80516515      -3.34720633       0.11095956      -1.58978519
H       12.97140346       6.55123556       3.85474906       2.31387989       2.58451423      -1.24091218
O        4.74764617       8.40943023       6.75965677      -0.91128645      -2.77039986      -0.87914251
H        4.46249903       7.59867782       6.21238170       0.86020376       2.15993765       0.44271674
H        4.37784655       8.08943677       7.59676220       0.36990413       0.65622271       0.41960098
O        5.10083438      10.64514044       9.78083530      -1.25370085      -2.21003303       1.88729271
H        4.64341360       9.73871279       9.41639096       1.61172699       3.09253854       2.29136217
H        5.14713739      10.69070260      10.91533832      -0.19130449      -0.46130479      -3.91663373
O        2.46883553       5.10821217       0.91496856      -0.17738042      -2.09645196       1.89713489
H        2.82782935       4.53601286       1.67952380      -0.57009589       1.51385537      -1.78507078
H        1.57140390       4.70635500       0.82024584       0.60696037       0.60464123      -0.13201124
O        5.09922092       2.76379732      10.87898385      -3.49936423       0.48312832      -0.37233330
H        6.00346307       2.64245698      10.97079609       2.64087796      -0.76980377       0.75002684
H        4.63906959       2.04771472      11.37529915       1.06609258       0.64426194      -0.55409334
O        1.71361816       0.04549866       9.06538771       1.05919688      -0.26803804      -0.69787458
H        1.15342534      12.76659071       8.22537181       2.36531738       0.38918174       1.84515746