192
Lattice="13.141618597775066 0.0 0.0 -5.291772105638411e-07 13.141618597775066 0.0 -5.291772105638411e-07 -5.291772105638411e-07 13.141618597775066" Properties=species:S:1:pos:R:3:forces:R:3 energy=-30023.757601297166 pbc="T T T"
O       12.76020724      11.03250768      10.42871754      -1.44872932       3.40908250      -0.49979884
H       12.11275893      11.58012143       9.83228191       1.56404331      -2.94588281       1.24716510
H       12.95049937      10.11034231      10.28864434      -0.49362356      -0.66206426      -1.05362787
O       12.42102741      11.40463621      13.03716907       0.26558315       0.72117906      -1.61690519
H       12.66450237      12.29206692       0.14009490      -0.25873630       0.92946929       2.34512908
H       12.68164718      11.64678770      12.11597262      -0.51014444      -2.16372231      -0.23083417
O        6.12411494       2.30682105       7.94638958       0.41520440      -0.50210615       2.94428872
H        6.49490941       2.27136088       8.97780888      -1.09092430       0.17303577      -3.52588773
H        5.47068692       1.58859528       7.80144794       0.95539115       0.32001032       0.01569247
O        9.85812057       7.78237587      11.11132439       4.51762400       0.53082486       0.95098942
H       11.03615900       7.43322475      10.92037609      -4.42592303       1.16765630       0.40899981
H        9.94372557       8.61051704      11.72663578      -0.23497314      -2.03681265      -1.54686834
O        2.86284395       3.98377304      10.23026551       0.96043566       1.71195374       0.98365786
H        3.48013975       4.71319091      10.94798856      -0.85140545      -1.58362997      -2.02847713
H        3.15251555       4.11289228       9.28658379      -0.11460436       0.05540522       1.22512046
O       10.27866934       5.49545241       3.24451248       1.74568662       4.85909223      -3.60893437
H       10.08346116       4.75262520       3.65365642      -1.29894198      -5.42389679       4.13672532
H       10.01499622       5.20353710       2.35817240      -0.24969270       0.52056615      -0.15079418
O       11.08088665       1.27173984       6.73187497       1.11046982      -3.96990185      -0.78861396
H       11.99392901       0.78087506       6.74145307      -1.83877084       1.82361162       0.37974785
H       10.51895337       0.46040534       6.38219467       0.74182502       2.36947229       0.60058917
O       11.91962565       9.37041604       4.06444611      -2.02504728      -1.48433910      -1.64639575
H       12.54808709       9.49673064       3.25083086      -1.84607278      -0.52734872       1.26374358
H       10.94292327       8.75905761       3.76458255       3.30989448       2.63714986       0.59668624
O        3.20561690       8.06779342      10.24772835       2.41258455      -0.64861739       1.13933817
H        2.34252887       8.27861762       9.83528764      -0.64021502      -0.80248249       1.08367893
H        3.43506814       7.36329980      10.95063444      -1.86884761       1.31704769      -1.59513823
O        4.78350057      12.25861128      13.11106391      -0.68620177       1.12358245      -1.06398942
H        5.65552640      12.20849820      12.78884790       1.75921062       0.86244062      -1.90795924
H        5.00812095      11.69445598       0.66256162      -0.93801564      -2.04382148       2.68511636
O        7.61769645       1.51760086       4.63043289       0.75654202      -0.06537185      -1.13653567
H        7.10756962       1.72631365       3.82383452       0.29503874      -0.16577909       0.66972100
H        7.10386538       1.62561122       5.41178950      -1.11057267       0.14282633       0.66635800
O        6.93098477       2.11916528       1.80411328       0.89130897       0.13371229       0.97810428
H        6.00730595       2.11784234       1.75627566      -3.01902041       0.58956943       0.97039611
H        7.04248241       1.69624686       0.96610825       1.70216298      -0.69217702      -1.22565525
O        8.65945429       9.78396750       5.56374802      -0.64008132       3.64624622       1.85588925
H        8.67898093       9.02004728       5.06219386       0.61718822      -2.75899445      -1.68818646
H        8.75904544       9.60780441       6.50520720      -0.05143698      -0.71605228      -0.11330750
O        3.21085734       7.68143108       6.91229264      -1.10687028       1.19349075       2.09208623
H        2.74581641       7.98597257       7.87179676       1.15035792      -2.31260462      -4.89410552
H        2.81513862       7.08404293       6.18483273      -0.30994394       1.39056582       2.55676174
O       12.77586401       0.72322649       1.27472969       0.94963702      -0.80323840       0.71785206
H       12.63588605       0.21839990       2.12656212       0.60350481       0.45533726      -1.04552889
H        0.59729290       0.77085773       1.03903945      -1.01479907      -0.17717165       0.81274634
O        9.52895806      12.65522060       5.24591361       1.23097744      -2.80288832       1.40304596
H        8.68724879      12.94573889       4.99317857      -1.85488652       1.63207985      -0.89662087
H        9.29786637      11.72614417       5.53135180       0.93731630       0.99414282      -0.58653552
O        8.15378471       6.23476589      12.79613996      -2.03588191      -0.74733747      -2.23016991
H        7.52639221       6.02023745      12.00242707       0.48581872       0.25450478       2.29797505
H        8.77032908       6.58037153      12.14795080       1.82108679       0.98220262       0.01552638
O        2.74249317       8.59499098       1.91565325       0.91761136       3.32656551      -0.06858470
H        3.04274832       8.21012039       2.70465647       0.51330433      -1.10131155       2.02761839
H        2.28581324       7.92886270       1.49617448      -1.26995536      -2.84587203      -1.87210263
O       10.39191909      10.77060888       8.71271227       4.47681545      -1.10976534       0.84780590
H        9.71393725      11.22914094       8.37604973      -3.34888783       3.82141549      -2.31257891
H        9.85972557      10.14464516       9.12711094      -0.69162166      -2.54764975       1.62286501
O        4.07904558       2.16949956       1.97729181       0.84026743       0.63127272      -0.88148222
H        3.74227720       2.22215269       2.87346400      -0.47232197      -0.84052968       0.36388466
H        3.64385024       1.50675802       1.41185538      -0.40323745       0.40641225       0.59305584
O        3.73326002      10.67498550       5.67836781      -3.21713421      -0.95013068       2.37742728
H        4.36742599      10.77002573       4.98588651       0.93616958      -1.31228087      -0.44569151
H        3.38236261       9.77713053       6.04524637       1.89843587       1.93007587      -1.79605967
O        3.95510328       4.27644614       7.50732067      -0.37363274       2.06752191      -0.65075140
H        4.49179481       5.07205349       7.10276469      -0.70123759      -2.70005961       1.00490032
H        4.39998256       3.42722785       7.55701041       1.09029180       0.63144242      -0.32329156
O        2.37384663       0.58000997       0.26865163      -0.42570632       0.73482134       9.30574864
H        2.05622336       0.91930200      12.69986728      -2.88737478       3.73759752      -7.81260608
H        2.91163832      13.04386157       0.12297496       3.47020791      -4.38654401      -1.29107955
O       10.77925564       2.08152438       0.45193850       0.54684797      -3.41424528      -4.48712557
H       10.37787473       2.73115820       0.86141583      -3.96623031       5.73644012       2.77588659
H       11.30949120       1.77190279       1.12992035       2.57098508      -1.87732711       1.40265515
O       12.99074541       6.65497546       2.92494236       0.72840386      -0.16159179       0.09739134
H       12.17631099       6.15728430       3.09957084      -0.11292080       0.90773832       0.01794939
H       12.90823187       7.63114866       3.00474229      -0.61808296      -1.27739614      -0.01494120
O        5.56165301       6.21065658       6.15983440       5.73638869      -1.40534967       4.59374923
H        5.25334908       6.35305817       5.36389896      -3.87119719       1.56111225      -6.46812471
H        6.52708392       6.06513285       5.84418020      -1.88976097      -0.18251954       1.93213789
O        4.08946032      10.79717305      10.49088528      -0.95499006       2.89899102      -5.02258870
H        3.83048099       9.93810677      10.36785158      -0.77819585      -3.45280669       0.45171509
H        4.42157193      11.02307880      11.28216396       1.54734142       0.64619026       4.47588985
O        4.19623928       5.06440688       1.30705713      -1.68894237      -1.83037362       0.16944702
H        4.23005370       4.08881578       1.60096215       0.03417768       1.73686259      -0.75408919
H        3.19768188       5.23728908       1.25996035       1.56304572       0.10986479      -0.05558880
O        6.66985593       5.67518216      10.43288746      -2.76130844       5.43844924       3.86758222
H        6.57259316       6.16022599       9.65145147      -0.51573248       1.38054366      -2.17402215
H        7.00625388       4.89686832      10.29276133       2.88150238      -7.01664390      -1.59975593
O        1.63700864      12.55839123       9.90021768       3.40499445      -0.59491732      -0.96154123
H        0.99718577      11.90226440      10.17925282      -0.45341459      -0.75961706       0.12865544
H        2.54858518      12.07869209       9.81031047      -2.39869545       1.08609062       0.60799395
O       13.10835558       9.40416696       1.73407668       2.33810483       1.76755642      -5.07009240
H        0.96783337       9.17857872       1.43278434      -3.50855849       1.03714196       1.48531098
H       12.76759509      10.08220172       0.84128064       1.33552364      -2.17761655       3.54336609
O        0.88982206       0.50244106       7.20522398      -0.17975869      -0.22015227       1.54572163
H        1.39284734       0.18398380       6.46569883       0.16776244      -0.58424210      -1.40341620
H        1.22921463      13.06172236       7.91564439      -0.52200597       0.82600809       0.23066757
O        7.70541286       2.62407231      10.03559179      -2.46744675       1.13574891      -1.42811422
H        8.53383979       2.75107484       9.59981436       1.54988167      -0.08683902       0.14256048
H        7.74346071       2.22671314      10.86862256       0.69499495      -0.89917141       1.92780301
O        3.20375049       1.56021497       4.63742332       0.99351547       4.81932241       0.87709591
H        2.51765636       2.20009606       5.04319640       1.46840855      -1.01662969      -0.39187009
H        2.68933732       0.83836434       4.45173503      -1.97711677      -3.24263441      -0.71494157
O        7.94518359       8.81262093       1.14781712      -0.21817406      -1.44897615      -0.01469231
H        7.96894364       7.90291238       0.70480054      -0.36277754       1.35091427       0.25071240
H        7.01721843       9.12668760       1.16953984       0.54566012      -0.47176198       0.00237004
O       10.16247843       5.48885887       8.69808581       1.48923963      -3.56285505       2.39631461
H        9.76908810       5.83599912       7.93871651      -1.15895569      -0.27845872      -1.82592561
H       10.12728815       4.40097636       8.74777555      -0.23631319       3.58332103      -0.62337429
O        3.96960115       6.67851274       3.67236813      -1.24138526      -1.35378362       0.70123759
H        4.43649420       6.42006259       2.85901217      -0.68102871      -0.55779573       0.50012280
H        3.25129600       5.96047218       3.97860298       2.24920636       2.12333542      -1.13914791
O        1.62865928       1.73840005      11.13928612       1.36302416       2.77547522       0.84459717
H        1.64670423       0.82919952      10.79563844       0.80603576       0.33150110      -0.91396554
H        2.43771832       2.44773565      10.96460472      -2.67995873      -2.41775247      -0.43431026
O        1.88220925       5.74049374       4.97195857       4.30708149       1.06564007       2.00137770
H        1.65566849       5.06484028       5.55246597      -0.22250945      -2.02491873       1.73508339
H        1.18999254       5.77441400       4.42473641      -4.35523825       0.89600895      -3.72998191
O        9.43845817       8.11715560       3.50746064      -1.28246635       0.10576439      -2.50974654
H        9.75178400       7.17199218       3.63964910      -1.03353727       0.97643821      -1.05038314
H        8.83281486       8.31744917       2.53075826       2.22932144      -0.97191306       3.50441387
O        1.65868480      12.66940996       4.92205716       5.67812749      -3.68954874       2.84951785
H        2.05953654      11.67311003       5.02783968      -1.04090091       3.46123476      -0.28833279
H        0.93117197      12.62586291       4.41902130      -4.59732306      -0.55073548      -2.87336226
O        9.91193419       3.41647973       5.42906184       1.02108284      -2.72299386       0.51457034
H        9.33132096       2.66611703       5.14071318       0.36878724       0.89358697      -0.09796315
H       10.64764927       2.84893717       5.89785993      -1.66404894       1.43408432      -0.93794365
O        8.68533105       8.57114625       8.30307619      -4.63223864       2.41518136      -0.39830762
H        9.22304389       7.87760660       8.44944661       3.47094325      -3.37585356       0.92953100
H        7.83693298       8.16468524       8.62460426       0.81019066       1.03227743      -0.42525741
O        1.40267839       2.96538156       6.24252363      -2.73188987      -2.77208650      -1.69488676
H        2.02906545       3.31368600       6.79403212       2.71209752       1.55867999       2.33898414
H        1.18132356       2.06858494       6.67200386       0.13141989       1.53315921      -0.37167973
O        5.10585098       0.28036655       6.26604027       1.04039697      -2.84893678       1.85043337
H        4.95969700      12.43754303       6.60307323      -0.13943556       3.16336215      -1.48885396
H        4.52978338       0.60807224       5.57652236      -0.89133468      -0.38305635      -0.08388739
O        7.79129833      11.76249865      11.58169943      -4.40698428      -1.34869283       5.01383666
H        8.17971440      12.12236561      10.90445844       2.67173120       3.51159239      -6.64769057
H        8.43456614      11.13732340      11.80395386       1.39697301      -2.16437537       1.37296919
O        5.41792689       7.43221931       8.83061824      -1.05293367       0.99973240       2.32751188
H        4.55410331       7.74051795       9.41729585       2.28289295      -0.83175708      -2.69224860
H        5.30812262       7.46259408       7.87793522      -0.87533728      -0.09800223       0.04455722
O       12.92467711       9.84169068       7.17130372       5.63097346      -0.87292558      -3.13877212
H       12.25849592       9.96964573       7.70873610      -5.56972977       1.31779846       4.31146265
H       12.54007111       9.63822204       6.33784962      -0.26078239      -0.36770429      -1.44549487
O        5.97017676      11.06313699       8.10106279       5.12101053      -1.80716684      -6.68923960
H        5.51529603      10.81161906       8.81515568      -2.74803640      -1.78267451       4.48177767
H        6.43569395      10.17591848       7.65780808      -2.35958897       3.61401487       2.11382234
O       12.17843246      12.46182750       3.67341061      -1.23409876      -0.57660078       0.53106140
H       11.37143722      12.80394057       4.10818261       0.59077784       0.20681184      -0.28667802
H       11.94882247      11.50793266       3.72648708       0.57186995       0.14838352      -0.26206897
O        8.75295620       3.99445184       1.49977288      -0.25942947      -1.18041926       1.33525111
H        8.64633757       4.50878034       0.69937648      -1.00521399       0.15461999      -0.12736937
H        7.92791071       3.46462903       1.83481085       1.60176654       1.21236265      -1.63395161
O        8.29225875      12.71312264       8.79032140       3.59812545       1.11939155       2.42590801
H        7.65158390      12.25427308       8.34639464      -3.21443969      -0.88484522      -1.81669535
H        8.36782578       0.51201070       8.66114924      -0.75452627      -0.07582184      -0.52641799
O        0.76534424       8.67877137       9.38492608       3.05454792       3.78702441       0.24249053
H        0.37809077       7.87955503       9.54013375      -2.35895647      -3.24656306       0.07339369
H        0.64899934       9.00098737       8.48500731      -0.51143565      -0.29566043      -0.57806631
O        9.68301160      10.06290739      12.65258212       0.13780960       0.94186715       0.66771554
H       10.37999091      10.74385263      12.74452561      -0.29670224      -0.68534303       0.28389095
H        9.20273089       9.95225697       0.36687168       0.57979409      -0.05328406      -0.89190547
O       12.10000629       6.83829145       9.91705610       0.78416595       4.26302820       1.33107563
H       12.67474565       6.17877789      10.15957801       2.67406576      -2.60209543       1.82330823
H       11.49817304       6.37896563       9.42518588      -3.52995007      -1.97973416      -2.75258726
O        5.01509762      10.03988871       1.64221680       3.85625908       2.53442914      -0.59427454
H        4.35410237       9.44996196       1.82864064      -2.93138178      -2.26949236       0.59429511
H        5.46616828      10.29680425       2.45487425      -0.33660885      -0.12996105       0.15355709
O        6.23894587      11.06034399       4.55263855       2.96134542      -1.67693017       0.67643158
H        7.10997155      10.53111386       4.88850732      -2.73248637       1.64286819      -0.90368112
H        6.37071099      11.95370096       4.88480308      -0.13552440       0.07080356      -0.01202505
O        1.66247953       6.28008463       0.75353247      -2.67860633      -2.19040522      -2.38237923
H        0.92830436       6.10683201       1.40229844       0.81466438       0.59860943      -0.37386208
H        1.19494035       5.87187680      12.98971405       1.82163187       1.36718935       2.64203495
O        8.07282536       4.69462737       6.91618739       0.48824893      -3.26664338      -2.21879020
H        7.37612652       3.99182712       7.07689851       0.98407438       1.39748209      -0.01077395
H        8.74672196       4.12285140       6.24852450      -1.65581627       2.15275399       2.34538619
O       10.19603832       2.70440247       9.16079836       2.26368167      -0.15373038      -0.04644390
H       11.07707075       2.74656731       9.73839529      -2.08813187      -0.58357875      -1.28488833
H       10.32589312       2.16329760       8.32602131       0.62184192       0.74208213       1.35049775
O        0.59280442       5.05605488      11.34860746       4.05118985       2.83829242      -0.75248996
H       12.96632230       4.56270297      11.46456606      -1.45772818      -2.48261112      -0.18848964
H        1.42239553       4.73928940      10.78409708      -2.17213496      -0.60314485       1.07802764
O       12.13593901       2.72730579      11.38362840      -1.12146900      -0.61908055       0.75899485
H       11.40784408       2.40180359      12.11024163       3.45932700       0.70368013      -1.62730274
H       13.11142428       2.40133263      11.43030183      -2.08075281       0.01131285       0.24031023
O        8.08963891       1.22168020      12.75155149      -0.25818609       4.66704110       2.15040914
H        8.98103792       1.57411223      12.87077512       0.02081205      -0.95284576      -0.15906799
H        7.97131489       0.46982522      12.28476427       0.30970791      -4.09340223      -2.11755558
O        4.20048169       5.58594172      11.65433430       2.06855035       0.65861384       0.60840533
H        5.12236131       5.80724363      11.18029735      -1.90116638      -1.22392747       1.27457821
H        4.34595251       5.30510737      12.63246545      -0.08470449       0.63907859      -1.50296418
