192
Lattice="11.908249397797602 0.0 0.0 -5.291772105638411e-07 11.908249397797602 0.0 -5.291772105638411e-07 -5.291772105638411e-07 11.908249397797602" Properties=species:S:1:pos:R:3:forces:R:3 energy=-29985.151991602812 pbc="T T T"
O        5.98287754       1.27541233       3.04720347       2.47976234      -3.59369287      -0.58895750
H        5.49116608       2.06410334       3.22936743      -1.62155375       1.25404023      -0.09112659
H        5.57768655       0.57161722       2.43498248       0.05475627       1.73142214       0.80070843
O        2.11007296      11.46007334       0.13335107       1.43606921       2.24403330      -1.34432196
H        1.58418194      10.72562829       0.47673416      -0.49441855      -0.60980401      -0.75178548
H        2.20174233      11.55802404      11.06837637      -0.21443876      -0.29982408       0.79631185
O        4.33715758      10.22544999       8.92356822      -1.39006703       2.31084599      -0.01501422
H        3.78583960       9.50867946       9.27737610       0.45959295      -0.27042248       1.49534857
H        4.05054462      11.06493672       9.45401546       0.27925782      -1.84652529      -1.63480007
O        7.83743199       7.61983433       2.77076658      -0.77704914       2.64611787       1.02620448
H        8.59299122       7.56681077       3.39279323      -0.79628099       0.76344800      -0.58713202
H        7.32492387       8.52483319       2.99893192       1.41573692      -3.04291110      -0.66133920
O        9.85793642       4.88986731       9.73807778      -3.01919525      -3.89022850       1.51775316
H        9.51772839       4.01347576       9.21059394       0.86967057       2.33631020       0.86154074
H        9.48576609       4.55001912      10.63561525       1.22748588       1.39129602      -2.23555380
O        0.48967202       6.88766474       1.02503213      -0.92835857      -1.58067320       0.75660887
H        0.18299477       6.04510878       1.43817666       0.20573506       1.42239608      -0.69593597
H        1.44260587       6.84850562       1.18528816       0.04988146       0.26359620      -0.45916666
O       11.28232272       7.53156757       7.16950452      -1.93470899       0.97348658       4.15560750
H       10.75557972       7.99893688       8.26881726       0.42978409      -1.86682672      -2.73971117
H       11.18622414       6.58899712       7.49108551       0.71259672       1.21580279      -0.84555362
O        2.38668447       5.81348792       3.58371507       0.64685361       0.44189862      -1.77846819
H        3.00499629       5.35368584       4.20703291      -0.35728669      -0.17499289       0.14593943
H        2.88566154       6.12818960       2.76672367      -0.63161725      -0.76601396       1.60621969
O        6.65974811       3.86443300       2.38867947       2.44246591      -0.57877079      -1.75477290
H        8.19367409       4.83055183       1.16485663      -1.74530095       0.02779260       0.60786026
H        6.76008011       2.96168314       1.96854981      -0.42217774       1.83672425       0.86877582
O        6.26662236       5.86936903       4.15653882     -10.46145960     -10.18378043       7.94224111
H        6.74431063       6.32964737       3.73074696      10.44238201      10.29346370      -8.78967677
H        5.82047306       5.36088265       3.44923527       0.42804397      -0.38219657       0.68308560
O        2.61925786       0.77849905       9.59091360      -2.90244144       1.51111972       1.19316165
H        2.22676712       1.80585957      10.51316364       0.76667217      -1.68698833      -2.03824733
H        1.66843224       0.60708797       9.21112312       2.26928153       0.25506322       0.68487508
O        9.18778640       4.08237993       6.72965242       0.22365514      -2.86298529       0.57694531
H        9.47258958       3.25277823       7.34418592      -0.92098465       1.99497566      -1.78385208
H        8.84921882       3.62708644       5.83105660       0.89275908       0.78046357       1.43775585
O       10.33985811       2.32231536       8.53107748       1.67368030       1.43476309       2.43010919
H       10.02827856       2.13863265       9.49163995       1.05552534       0.33115400      -2.34728367
H        0.10915338       2.96430256       8.81683318      -2.79873856      -1.38539790      -1.29513675
O        0.71752726       9.01569797       9.76268452       0.77944541      -1.67832371      -2.58035418
H        0.67821997       8.16536311       9.10412348       0.17355410       3.48880727       1.95279928
H        1.12754434       9.81629017       9.31198429      -1.22152606      -1.83372120       0.32451078
O        5.07668274      11.34503022       1.50660456       0.83583485      -0.53835305       1.10397007
H        4.54270589      11.41556954       0.74380090      -1.22866344      -0.17871997      -0.80099640
H        4.79674799      10.60095414       2.08524926       0.21608684       0.05649845      -0.58011805
O        2.14468644       1.33421450       4.06698087       0.24391132      -0.50825828      -0.55402135
H        1.86528617       1.07404453       3.15865877       0.00065306       0.40139089       0.67128423
H        1.38155999       1.71966189       4.53181013       0.23866935      -0.39723135      -0.21687720
O        1.29474846       4.04200900       1.57285226       1.40956113       0.60856988      -0.45831717
H        1.44803523       4.68712364       2.34368353       0.57109348      -1.28559281      -1.24514422
H        2.08695850       4.11609381       0.90458611      -1.85867118       0.53641444       2.35334118
O        7.16146103       9.84814664       6.02695800       1.67734155      -2.08096878       0.78026302
H        9.44517820      10.41494835       6.72764155      -1.29447855      -0.14119625      -1.14120479
H        7.16172561       8.82937468       6.22418235      -0.05775778       3.05450678      -0.21543069
O        3.26570603       4.73238417      11.43964710      -4.63308196       2.17364677      -1.70917181
H        2.47204605       4.13582153      11.31206248       2.33534346       0.71614999      -0.12363973
H        4.00061146       4.37254896      11.79811174       3.55693123      -2.15129874       1.91268492
O        7.78398510       1.68367255       0.20674424       4.67956237      -0.13979243       1.71349126
H        8.85212930       1.91857431       0.81670036      -4.80267708      -1.41851372      -2.57660552
H        7.91686149       0.80433348      11.62787544       0.52488561       1.66088134       0.94235052
O        0.23043868      10.22386246       6.64958791       0.04692315      -0.70736195       0.67158762
H       11.53082434      10.94772397       6.26736321       0.18625587      -2.30064899       0.29506959
H       11.83531290       9.28049825       6.80902900      -0.30935001       1.91929266      -0.73715076
O        4.51201890       1.87330849       7.75535661      -1.06289413      -1.45459144       9.49318207
H        5.49211860       1.72146109       8.00454616      -1.42169674       0.72191440       0.04113560
H        3.82196653       2.37282532       8.32311084       1.45089933      -1.34992182      -1.36061247
O        8.27331526       0.02221221       9.82105277      -1.85171892       0.25626856       0.63112874
H        7.48505289       0.62448203       9.68219667       1.27528269      -1.28632301       0.27356077
H        7.84415255      11.03011686       9.99393496       0.39632941       0.80020450      -0.96472426
O        4.41310510       3.06977287       3.50202069      -1.73859037       0.98140558       0.92200281
H        4.92571906       3.66435110       4.11380776      -1.41109865      -1.36734876      -0.34501327
H        3.56200822       2.70711715       3.90934427       2.11767385       0.93889495      -0.22271669
O       11.54283666       4.88018336       7.86526672       8.34364176       4.48481158       7.25699064
H       11.02043292       4.94842606       8.69538701       1.30231013       0.24842721       0.30861982
H       10.91724336       4.60757772       7.40742259      -8.96790566      -4.57189999      -7.96954622
O        8.51260920       1.12415232       6.83479993      -1.67456990       0.87169660       6.36409787
H        7.88463460       1.42798470       7.99570890       2.67654945      -1.14180129      -5.39571750
H        7.90109201       1.38799478       6.17830269      -2.18085100       0.86320681      -0.70072851
O        9.85656056       5.92636142       3.87259820      -4.06823113     -10.05620228      -2.15672891
H        9.17201692       5.51429112       4.48737512       1.70018323       1.06432366      -1.23601166
H       10.04383637       6.71388294       4.11070149       2.10634557       8.94548564       2.92046488
O        2.59425423      10.70488455       5.20303438       3.60323166       1.88079810       2.73437356
H        2.34832442      11.55294394       4.82405354      -0.06246033       0.80746015      -0.91574988
H        3.49731631      11.17638144       5.74284276      -2.66929893      -2.40553973      -2.87750174
O        1.58517150       3.16247943       7.96940879      -0.67129966      -2.57934117       1.79709326
H        1.05728548       3.96629432       7.82430840      -0.46755720       0.52445880      -1.00587220
H        1.19282364       2.29630100       7.57369007       0.36238879       2.03438039      -0.04026554
O        7.44525876       3.02975649       9.64430758      -1.02932066       4.60480497      -6.18777160
H        7.56024897       2.72899863      10.46178054       0.27790953      -1.91423787       5.64274911
H        6.89152773       3.89783996       9.67907452       1.34231650      -2.55216461       0.04635751
O        5.52476883       1.41806792      10.40452356      -1.56693837      -0.09059643       1.75079797
H        4.56648711       1.67206240      10.23836192       1.92053707      -0.95267607       1.11104575
H        5.73797433       1.40212910      11.40339846      -0.96163893       0.40266307      -2.40223843
O        6.64191484       4.90647289       6.92973433       0.40689048       1.01714906      -1.12231747
H        7.61290210       4.51573373       6.88639471      -1.99768046       1.08840976      -0.44392928
H        6.22481736       5.31177500       6.07040345       1.82329794      -1.79863078       1.99687313
O        5.29367714      11.35825965       4.66768696       3.26526526       1.32906503       2.42645822
H        6.04198664      10.95899544       5.31844264      -1.80950655       0.93414870      -1.53288154
H        5.73718056       0.43023906       4.35696469      -1.35549597      -2.51893567      -0.02433189
O        3.00438245       7.56384738       1.39569431      -9.42844169      -0.99985067       0.99007534
H        3.84104866       7.64057807       1.28472585       9.48284624       0.77576873      -0.80223053
H        2.69319450       8.03238088       2.21439496       0.59486590       0.27348826      -0.09315982
O       10.47627999       3.60953892       1.37788220       2.51984070      -0.02934092       3.65328590
H       11.57882071       3.69535559       1.32498036      -3.12270273       0.08262703       0.50959526
H       10.31953770       3.46596785       2.47763945       0.43257631       0.54196802      -4.28348390
O        2.28926295       8.60881361       3.56111391       0.23283758       2.00545033       2.73794739
H        2.60461552       7.78435552       4.02276282      -0.75111185       1.30632105      -0.07145919
H        2.32423098       9.59281864       4.20903320       0.56254713      -3.29555286      -1.79203847
O        6.29472167       4.98868057      11.52198708       3.68711648      -0.96845750       1.24072192
H        7.29449618       4.70154372      11.78250102      -4.71426198       1.19329535      -1.47371531
H        6.29048826       5.60684422      10.76357030       0.33132318      -0.53859987       0.12838753
O       11.87369518      11.01117232       3.73086338       3.55475608       2.27624408       4.51505289
H        0.08578333      11.80038721       3.18234474      -0.16987486      -0.35707381      -0.28207832
H        0.79242700      11.40667936       4.72644680      -3.91768788      -1.93609225      -4.26499767
O        5.38204974       5.57742196       9.24197415      -3.08088630      -4.20057610       0.61177347
H        5.71252091       5.57175977       8.30908764      -0.56166267      -1.07128107       0.28554365
H        4.65885499       4.45722260       9.44591904       3.21800324       5.20201057      -1.10467456
O        7.20972199       7.67354581       7.91268099       0.67503804      -4.40222259      -2.15884236
H        6.63106671       6.80887025       7.69841714       1.82844529       3.01464954       0.39997215
H        8.13128410       7.31423449       7.59491008      -2.61560915       1.47083053       1.40070625
O        8.98781033       8.72592053      11.67894104      -3.32135131       0.92496986       2.36749768
H        9.05152327       7.83743199       0.27463980      -0.95410046       2.84272500      -0.88436185
H        7.97062590       9.27562982      11.81689754       4.18454784      -3.44554589      -0.75681970
O       10.34398569      11.05578195       1.09442314       0.18860894      -2.86723275      -4.45145922
H       11.18828793      10.49839960       0.92138219      -2.06412805       1.89396215       1.07108052
H        9.74522167      10.61788781       0.32405331       1.98985916       1.33430494       2.74975390
O        8.73655699       5.68775541       0.96334594      -0.21069472      -1.58017955       2.50550422
H        9.55657000       5.12663707       0.94114696       1.16547601       0.34507498       0.54776843
H        8.61675127       5.98658178       1.95885528       0.53424957       0.47570863      -1.45910115
O        0.04925052       4.44550133       4.77941744      -1.79265553       3.74272430       2.59370850
H       11.46832851       5.26709657       5.40353433       2.17548254      -3.91206745      -3.07358437
H        0.62294741       4.98246803       4.21270569       0.06694176      -0.09500998       0.45848121
O       10.28879250      11.83790587       5.94985688      -0.04456853      -1.72418191      -1.76530928
H        9.39395331      11.89621802       6.36721895      -0.60574681       1.63306201       0.42826766
H       10.11331734      11.70412987       4.97685346       0.19914841      -0.33588946       0.82161150
O        2.91752330       8.88731958       7.24644689       0.95463525       0.41372498      -1.43042821
H        3.39329065       9.78861421       7.63951972      -0.75398120      -1.07524571      -0.39208195
H        2.33788904       8.91134423       6.43288984      -0.06665585       1.45824755       1.24819355
O       11.85574020       0.16212191       8.61055990      -3.01181618      -1.93973807      -2.30001136
H       10.95836043       0.64401925       8.53986182       2.14711813      -0.06826845       0.41761352
H       11.61365697      11.29205958       7.91130513       1.88207337       2.07551290       2.47074805
O        2.35010774       6.14459410       8.54224312       0.58569734       1.41330466      -0.22253208
H        2.27649390       6.86512179       7.88542837      -0.22258453      -1.20685020       0.38098867
H        3.18144514       6.42997937       8.97188210      -0.46799480      -0.60805052       0.08262806
O        3.61040148       4.79567376       5.72268111      -0.77728054      -2.11044391       2.39025709
H        4.21394925       5.77612801       5.83274997      -0.36308299      -0.20486397       1.00715775
H        3.41095459       4.35610213       6.65387425       0.68651031       2.01171868      -3.40552924
O        1.73442064       2.92785284      10.70991173      -0.64007104      -1.13910677      -1.54706374
H        1.70359078       3.11624522       9.69230395      -0.02433652      -0.07741798       1.21356078
H        0.82867034       2.63618623      10.97746373      -0.36790175      -0.24716634      -0.29863160
O        6.09093553       2.37449223       6.00129291      -0.53942263      -1.31914571       0.42798895
H        4.61595989       1.97871001       6.89666075       1.05109276       1.78911255      -8.97937278
H        5.92117548       3.13050654       6.55825192       0.73931563       0.70724368      -0.56308192
O        3.24661331       8.32395752      10.44257140      -1.73535592      -0.61572783       3.45437506
H        2.26119539       8.39275056      10.18332749       1.60736126      -0.16802109       0.97073036
H        3.19128784       8.16044176      11.53071850      -0.22709887       0.76640477      -4.14145101
O        8.58362478      11.78959199       2.95235374      -2.04905625       1.15051219      -1.36508105
H        9.07962258      11.45970292       2.15762482      -0.66922221       0.56928856       1.30594053
H        7.70058677       0.35346551       2.65988808       2.60850777      -1.32025643       0.83035840
O        8.62204304       3.29139758       4.38949321       0.48867779      -6.81460660       1.08228025
H        7.96835044       2.38896523       4.23941326       2.75492696       2.85866070       1.06165485
H        7.97999234       3.72109477       3.94057631      -3.83003897       3.70300075      -3.04570846
O       11.14807046       1.89540164      10.94814731      -0.71750239      -0.26917601       3.54776267
H       10.98238507       0.98379864      11.33455251       0.53489748       1.09828279      -0.86654925
H       10.88633888       2.43239956      11.76746921       0.24578154      -0.87323926      -1.38787131
O        6.93026350       9.54704481       9.96356019      -6.44087101       0.72494316      -2.65877798
H        6.56460205       9.06025469       8.96293900       2.44280530       1.64830865       4.01745184
H        5.92260426      10.03166530      10.18740215       4.45975875      -2.22076481      -0.90329546
O        5.36961407       7.69397205       0.46013493       2.33944694      -2.12508377       0.05264694
H        6.18978583       7.07467596       0.81348825      -3.70957249       2.07229388      -1.99337643
H        4.94964846       7.36821056      11.51076852       1.78638718       0.04740240       1.66332389
O        5.22753528       9.19133189       3.34199221       1.16951264       1.43269592       0.01578863
H        5.41258326      10.06008211       3.92663778      -1.05257886      -1.54511999      -0.93949659
H        4.49330190       8.68268675       3.67359053       0.07943527       0.27292776       0.38457330
O        0.96240930       9.71971533       1.24551911       1.34960815       0.91045341       1.01015565
H        1.81396127       9.37807853       1.59463319      -1.63434756      -0.19054601      -0.17906089
H        0.33552005       9.06253015       1.05582495      -0.39780728      -2.22791248      -0.13417457
O        0.38242208       2.05316524       5.88016425      -5.51357688     -16.14848310       4.24886656
H       11.35106284       1.82582542       5.52291671       2.47437845       0.43208472       1.52517337
H        0.51678018       2.78727162       5.61668691       2.60210572      15.95472476      -5.33534799
O        9.57482661       7.62480859       9.51905133       1.16119255      -3.35868373      -2.47683642
H        9.54794441       8.21462951      10.33901142      -0.71738412      -1.54330993      -0.58453521
H        9.41221046       6.39394240       9.41496218       0.71999636       4.71477106       1.67570118
O       10.31948478       8.50181398       4.44126791      -8.17790844      -3.46374930       5.50864036
H       11.08488670       8.74999809       4.18252671       8.28862015       3.02839465      -2.86895025
H       10.39976097       8.31903617       5.44645060      -0.03967727       0.45791196      -2.42940985
O        0.74234037       1.17348751       1.70362253       0.68152751       1.70162819      -0.80460623
H        1.11882879       0.72560779       0.89216632       0.11576239      -0.01987154       0.97246842
H        1.08944887       2.11100431       1.67439078      -0.56895946      -1.45914743       0.14525551
O        4.72356278       6.81802502       6.18232443       3.20197498       2.00602626      -1.03347042
H        5.68532120       6.88343132       5.72437448      -4.08439822       0.26905054       1.31215231
H        3.67483939       8.41397057       6.79638167       1.08592607      -1.25601998       0.40223164
