192
Lattice="12.726002816598225 0.0 0.0 -5.291772105638411e-07 12.726002816598225 0.0 -5.291772105638411e-07 -5.291772105638411e-07 12.726002816598225" Properties=species:S:1:pos:R:3:forces:R:3 energy=-30023.299089442655 pbc="T T T"
O       10.82188457       1.71908932       8.54103660       0.81315772       0.38388321       1.01075215
H       11.19648912       1.56849607       9.45386729      -0.37007433       0.26383480      -0.57279041
H       10.05595347       1.12685006       8.44922435      -0.44219070      -0.31654036       0.28065547
O       11.30060103      10.74517610       5.24036783      -2.72008337       2.09981497      -0.49563571
H       11.96842267      10.26224898       5.64229909       2.38908466      -1.65651561       0.19950168
H       11.30763908      10.76459690       4.26967691       0.43453344      -0.41899523       0.27740868
O        6.17438678       0.41558456       9.68605966       0.16171932      -3.83390591      -0.02893365
H        5.82142505      12.15244351       9.64737681       0.14394476       2.99199812      -0.04116594
H        7.10430989       0.21577571       9.44819451      -0.34760289       0.81674183      -0.40196424
O       10.52230677       7.81826467      11.90533892      -0.37064717       1.24297935      -4.29430824
H       10.12042313       8.69565107      11.72041266       0.51132818      -0.61011768      -0.00657174
H       10.42944728       7.73678778       0.07020700      -0.52810463      -0.32034559       4.55171683
O        3.47660484       4.96396799      11.35365581      -0.16887727       2.36449463      -1.56135908
H        3.77821469       5.65517926      10.62206831      -0.27991088      -1.62160517       1.85284506
H        4.17709259       4.38012677      11.65047130       0.56658890       0.05460818      -0.77345474
O       11.93177132       7.36498258       3.94440226       4.02261461      -0.83081605      -0.81347653
H        0.01384169       6.79421204       3.55130297      -2.94125996       1.17329730       0.95354510
H       12.51042290       7.94734210       4.51517809      -1.01303015      -0.00290586      -0.35021256
O        7.31870074      12.08672500       6.22227731       0.90148540       1.20912820      -0.43384130
H        7.67875292      11.74249522       5.37056659      -0.92692904      -0.11381349       0.51387871
H        6.47667396      11.73344629       6.51438313       0.19129523      -1.39702443      -0.24291219
O       12.60971930       0.13375483       7.51505724      -0.19864139      -0.57559291      -1.96609188
H       12.31822256      12.63252895       6.57497392       0.56095819       0.30446235       2.08728855
H       11.92407656       0.74569536       7.88812717       0.30092965      -0.37286912      -0.37528802
O        3.93858025       7.14522587       9.61885416      -6.70847145      -2.10077656       2.30388344
H        4.70181254       7.52178837       9.40083315       5.34007882       2.39822236      -1.31678544
H        3.42120369       7.72896125      10.23772690       0.84695230      -0.71005647      -0.72280914
O        4.44514519      11.75520553       1.26143147       0.71760009       2.26826337      -0.14940424
H        5.21679140      12.04249584       0.76035357       0.81004154      -1.38676573      -0.50815287
H        4.27217304      12.72174770       1.46918644      -1.16193303      -0.88710779       0.95092258
O        6.50346092       1.17441886       3.05234707       2.27131270       0.32280357      -2.09598917
H        5.80346530       1.39767872       2.44817486      -1.31005943       0.05709186       0.26681574
H        7.27441919       1.41459652       2.31617161      -0.77348559      -0.19741240       2.12885815
O        6.77265495       4.71192194       1.03294333      -1.93379368       0.02895165      -0.31074149
H        7.22526022       4.88977840       0.16911445      -0.90909072       0.30645187       0.87279189
H        5.80166769       5.03916513       1.16137464       3.01543629      -0.17917351      -0.67815936
O        8.08926584       9.85916358       1.76282687      -6.46077135       2.22620012      -0.39812301
H        8.56139775       9.08222560       1.86273553       1.80035856      -2.84700846       0.58718344
H        7.03244603       9.61193199       1.77838468       4.07511654       0.61518790      -0.18888199
O        0.79685674       8.96791380       5.77255077       1.02700667       0.41331978      -0.21186046
H        1.61956855       9.35971661       5.35100820      -1.48237992      -1.14881526       1.43718507
H        0.94693140       8.73793338       6.74126257      -0.02027212       0.86187498      -1.29882371
O       12.18900384       1.69697553      11.06673592      -1.44830252      -2.65151204       1.24960251
H        0.35372427       1.95553681      10.87061756       1.08333440       0.48412488       0.09762788
H       12.26325216       0.73244952      11.49901020      -0.07789723       2.31991684      -1.48126921
O       11.11537842      11.04567520       2.30591086       3.45319235       2.08650179      -0.33747891
H       10.24350605      11.38752368       2.31231391      -1.26550736       0.62087004       0.11162805
H       11.74769227      11.90908074       2.22230086      -2.09665765      -2.59292174       0.58502372
O        8.78408769       5.26047657      11.66936293      -0.33205851       1.27557065      -3.54458479
H        8.40302718       4.87308180      10.74256196       0.73160232       0.72143103       2.62994048
H        9.10175277       6.17544513      11.36476853      -0.47834709      -1.81680334       1.09750632
O        4.42612339       6.27904691       1.92131545       1.94173839       1.79261440      -9.79482392
H        4.43300269       6.31005670       2.76228387      -0.06725441      -0.37905365       9.91021504
H        3.86874103       5.64996105       1.54030786      -2.02687277      -1.73727911       0.06779177
O        8.79782619       0.01690245       8.41706096       1.62278788      -2.45246750       3.04634096
H        8.45010331      12.65167511       7.58466521      -2.19791284       0.66420341      -3.98886117
H        8.99600253      11.74958672       8.43320087       0.51175498       1.53812659       0.92633769
O        3.94653961       1.49728575       2.28450564       0.66831718       0.21827279      -0.54853976
H        3.69496876       1.18681748       3.15604993      -0.50267025      -0.04587157       0.25953900
H        3.13737473       1.81558584       1.85178686      -0.26151978      -0.20584511      -0.15020591
O        3.68954999       8.58494719       5.43632215      -0.02121572       8.80078394       2.43206323
H        3.75887220       7.73625278       5.27338849       1.49328654      -6.73649648      -0.74554798
H        4.33593995       9.05866663       6.08392922      -1.07919492      -1.91486522      -1.71171206
O        7.89147792       3.79725501       6.88733665       1.22533644      -3.08685126      -1.03539875
H        7.22229630       3.05508397       6.47542511       1.96709461       1.68344021       0.77729082
H        8.87213854       3.41518377       6.76139247      -2.99010578       1.17562672       0.02335333
O        2.97197510       0.91774622      11.41722057       1.81942072      -3.56509705      -3.38162312
H        3.43744414      12.71563994      11.61096293      -1.72190905       3.11282969      -0.41559983
H        2.88322150       0.85104872      10.34500171      -0.03014104       0.54151036       3.52825828
O       10.09629900       3.15410255      12.69797759       4.22160773      -0.72484032      -0.89029082
H       10.03168647       4.07251077      12.37554992      -0.57673962      -0.24741933      -0.22482036
H       11.05056427       2.81379927      12.30464017      -3.30247427       0.91418665       1.21413671
O        0.52581111       4.88995780       3.41104455      10.67028461       3.40503044      -1.90923450
H       12.46714626       4.58023037       3.37379047      -8.69691136      -3.59841855      -1.02783456
H        1.02385895       4.77994185       2.48964119      -1.62608403       0.40596436       2.71986739
O        4.61435172       5.83557577       4.66026261      -3.87168056      -2.06278594       0.37904954
H        3.83860968       5.14552869       5.02961772       2.88403749       2.55593899      -0.93109423
H        5.37670558       5.88140252       5.21774551       0.72515399      -0.30982053       0.58390271
O        4.57826131      10.64916219       9.57509120       5.24793048      -1.11645535       1.64758360
H        3.69765751      10.68879756       9.38548701      -4.05851750      -0.21066438       0.07526082
H        4.87941606      10.03007777      10.31900852      -1.11983892       1.23936952      -1.19085794
O        2.33565221       4.82262582       1.01177624       2.17472149       5.88916366      -1.76774668
H        2.70353621       5.29152974       0.04835621      -1.77223069      -2.86825091       2.69710799
H        2.08535139       3.95699774       0.94478241      -0.74875158      -3.74279115      -1.28309370
O        7.29693092       4.55745406       9.54662147      -0.91134815      -4.18287148      -2.69255713
H        7.64110778       4.08585133       8.62326015      -0.73059959       2.13956423       2.14100404
H        6.58936807       3.82501988       9.73103973       1.67566005       2.13367640       0.39393314
O       12.63705024      11.85029920      11.69206463       1.68761568       0.19212930       1.82552966
H       11.89729966      11.41515678      12.12863583      -0.32924110      -0.18568354      -0.13952607
H        0.63034954      11.88130899      12.40989352      -1.16904984      -0.34636413      -1.56562711
O        2.21634709       8.00787945      11.88403425       0.34011532      -0.03764404       0.30309915
H        2.43665944       7.55643837      12.71553834      -0.46601763       0.06310465      -0.77724969
H        1.41358526       7.59300451      11.51645717      -0.03997551      -0.39360250       0.42134676
O        2.16570536       1.31847148       8.61505791       3.91798099      -9.32441485      -2.73021866
H        1.52312547       0.84363548       8.08810324      -0.93968171       0.42090813      -0.13586430
H        1.96643839       2.09415002       8.87202636      -2.93610747       8.75707518       3.02261481
O        5.46932164       3.02788744      11.33117636       4.27110147       4.90831344      -2.32787183
H        4.87844237       2.40054786      11.34477621      -4.99517045      -5.73294342      -0.04158297
H        5.61611540       3.30454128      12.19135391       0.97812485       0.46000587       2.69620296
O        2.29205224       0.52800191       4.28906596      -0.56267054      -2.89697014      -1.89405985
H        2.59424947       0.69982575       5.13495573       0.87693136       1.89537111       2.87149050
H        2.47422097      12.26460209       4.33917904      -0.56609011       1.04197049      -1.18035755
O        8.45737421       5.86409843       2.78600159       4.62905047      -2.52785225       1.44067148
H        7.87766058       5.34153593       2.19655110      -0.01697031      -0.01844304      -0.05312877
H        9.45111609       5.15145548       2.97280644      -4.19169551       2.27707712      -0.70280082
O       11.50309598       6.00152575       6.19264339      -1.47793191      -4.36206710       4.85615089
H       12.02544680       6.54853623       6.71271875       1.48060586       1.41668823       1.54500686
H       11.53071903       6.37840576       5.40734441      -0.00399035       2.82358570      -6.25595726
O        6.34354303       1.81473916       5.57832157      -0.42701604      -0.38386779       2.74160864
H        6.35597870       1.88713060       4.62841143       0.23164767      -0.63098990      -1.18231159
H        6.46488337       0.85983888       5.88561477       0.61235454       1.50779271      -1.12045085
O        1.58844182       3.22169436      10.48903316      -1.10008257       1.86468757      -2.25813323
H        0.76954008       3.57861910       9.80015027       3.41481606       0.02507546       2.41850837
H        2.35971760       3.90290947      10.63159350      -2.40982833      -1.27961757      -0.44892442
O        2.27173660       4.53534556       5.65004624      -0.43292855      -1.72781745      -0.25763124
H        2.50383372       3.58637207       5.92638258      -0.28715059       1.63853331      -0.77751708
H        1.57512772       4.49782690       4.92390928       1.08945362       0.03554190       0.90908044
O        9.98546866       8.10995879       1.95686557       2.63967468      -3.12408084       3.41627131
H       10.83670312       8.05534770       2.63061400      -2.54662645       0.78506584      -2.21313892
H        9.58736864       7.22845539       2.32173326      -0.03826470       1.85755018      -1.26399040
O        1.66122485      10.69995314       9.51198153      -3.68249877       5.45968655       0.15690055
H        1.10971636      11.04810412      10.36385100       1.92117471      -1.20391915      -2.23917905
H        1.25391715      11.50707010       8.81770103       1.61661723      -3.68529099       2.57257403
O       10.18414295       1.21320279       4.04579261      -2.95943766      -3.42137752       0.18487210
H       10.34845247       1.58002843       4.91713581      -0.20835450       0.22089172       0.35642332
H        9.41778851       0.35267015       4.15464436       3.16677658       3.32640610      -0.80385032
O        7.75582070       8.28147465       7.17048879       0.96329987      -3.90530545      -2.06110958
H        8.62223196       8.66089471       6.99967039      -0.14758750       0.54147951       0.41556435
H        7.86892174       7.28984947       6.50346092      -1.22962504       3.03802601       1.59005773
O        3.53669133       1.96237907       6.29406549      -0.41044220       0.44565911      -1.29660228
H        4.45888845       1.76123881       6.11636779       0.50560850       0.30837608       0.09898439
H        3.29512193       1.73186948       7.17387552      -0.03397147      -0.46795984       1.40070625
O        8.15509655      11.78173900       3.55672174      -0.20905539       2.07664933       1.45283280
H        7.41758227      12.39289158       3.32748747       0.28300443      -0.14831924       0.00416416
H        8.02333142      10.99953042       3.04202811       0.24397097      -1.29679768      -0.93764540
O        6.15693451       9.21048334      11.59979729      -1.12715114       3.07788839       2.12909469
H        6.30610957       8.50568809      11.03998072       0.78147144      -2.80687353      -1.99808155
H        5.66675766       8.93257534      12.39144640       0.26681676       0.02679604      -0.11123467
O        1.55971173       6.13324801       7.94764373       2.15650780      -0.00175092      -0.59227937
H        2.41729631       6.52436289       8.32199427      -1.53349346      -1.17779159      -0.86214238
H        1.81711411       5.57110306       7.14477078      -0.18517806       1.08210541       1.23285434
O       10.01986465      10.07955584       7.78440844       0.39243522      -4.40630036       9.62127444
H       10.28387116      10.25148551       6.99699275       2.66117425       2.18063503      -8.55575779
H       10.81241335       9.44665989       8.14366685      -2.91140945       2.45313599      -1.05272798
O        5.79327282      10.09537771       7.12900130      -1.59970451      -2.19737291       2.87240067
H        6.36684800       9.26906749       7.26203645       0.09266925       1.37126198      -1.00653040
H        5.27682761      10.03542193       8.02650701       1.09962491       0.93135648      -2.10937947
O       12.45842066       0.77110698       2.65564408       0.00113386       1.23755946       2.32938879
H       11.68201185       1.11475466       3.21281477       0.39400205      -1.03243169      -1.27499987
H        0.41124636       0.89445818       3.37320838      -0.09861775      -0.76214703      -1.15643601
O       10.70753043       3.86531143       2.83796680      -1.33864496      -0.89240426      -3.47451194
H       10.62943975       2.89290597       3.07839846      -0.37767040       1.64298132      -0.25946907
H       10.43012515       3.89485011       1.77848523       1.32648364      -0.60117539       3.46765738
O        6.99307578      11.98862612      12.26511063       0.71753324      -2.19048236      -3.90848848
H        7.01244367      10.95128004      12.08095696      -0.59693821       2.79920650       0.72086539
H        7.06742518      12.32322487      11.25671054      -0.71938958      -0.55744092       3.40314840
O        9.68195907      10.67805579      12.25094985      -2.30952958       1.21330367      -1.00691092
H        8.74420942      11.03345120      12.40642212       1.87306936      -0.19877611      -1.06312038
H        9.74588420      10.39060726       0.40518041       1.05847697      -1.01329754       1.95705188
O        4.97730379       8.86400403       1.52140565      -0.73274389       0.54195259      -0.41604103
H        4.21772282       9.46001632       1.58675903       0.67671440       0.00150050      -0.02160755
H        4.56475723       7.98747490       1.47347807       0.45683519      -0.47827305       0.38750333
O        0.53321907       8.68739537       8.49256396       0.28592366       0.49915760       0.64033329
H        0.99847167       7.83383253       8.38117216      -0.37304036       0.61837607       0.76959294
H        0.95280368       9.38104086       9.16916995      -0.43267556      -1.75586819      -2.07357429
O        2.44689425      10.77936042      12.62375731      -9.73255179       0.82860490      -6.38528376
H        2.34291093       9.89499946      12.69430510      -0.75364182      -4.33313191      -0.13941551
H        3.12196615      10.99870490       0.31058575       9.90003347       3.59514297       6.20252973
O        3.02205114      10.61117837       3.72018988      -1.63683124       2.60868774      -1.13160944
H        3.23366911       9.84006134       4.15977738       1.12825672      -2.82217674       1.73796817
H        3.70203328      10.77538206       3.08909313       0.73069215       0.37792802      -0.58220064
O        1.70660762       1.86362455       0.86363837       1.46237160       1.14222809      -2.17000609
H        1.85432161       1.71952907      12.56498372      -0.80972272      -0.39339887       2.93684795
H        0.99473197       1.47467930       1.36630381      -0.79338079      -0.45586331      -0.69785401
O        7.44883547       6.18674835       5.47899500       2.22476545      -3.07219597       0.37149924
H        7.78621240       5.26746170       5.93403449      -1.32717270       2.50841471      -0.97193363
H        7.88619515       6.09662948       4.57023369      -0.81644359       0.49734498       0.96563443
O       10.78898139       3.14104246       6.10972132       0.43339649       2.31280003      -2.69114817
H       11.32209568       3.98856210       5.72035273      -1.67881222      -3.08706209       2.59708178
H       11.03426561       2.71366836       6.92894056       0.99337149       0.66003308       0.48336126
O       12.63405193       6.37333571      11.27476078       2.84440136       8.48381832       5.92366786
H       12.52980402       5.67349885      10.82188563      -1.99647718      -7.54875945      -5.18946359
H       11.90003022       6.94177787      11.56561245      -0.38397063      -0.76412677      -0.88973546
O       12.33427462       4.41118471       9.06948354      -1.62149204       0.18313404      -2.03512601
H       11.57548742       3.74424680       9.08064918       1.29727077       1.77060061      -0.62909757
H       12.31273711       5.04403832       8.22915013      -0.04279139      -2.49889649       2.83478029
O        8.21637738       1.74334363       1.27398355       0.68431973      -0.34637802      -0.88948349
H        9.13328274       2.22648242       1.27239602      -2.73669269      -1.65780631      -1.26729170
H        7.91966772       1.18416207       0.47974148       1.75299884       1.56107111       1.52849523
O        6.58214957       7.40355960       9.60816478      -1.54022461      -4.11672728       3.59396026
H        7.26298897       7.69571834       9.06787484       2.25214770       0.57259500      -2.09747526
H        6.79482589       6.40452594       9.95625755      -0.50460834       3.49028309      -1.91389848
