192
Lattice="12.980928646015249 0.0 0.0 -5.291772105638411e-07 12.980928646015249 0.0 -5.291772105638411e-07 -5.291772105638411e-07 12.980928646015249" Properties=species:S:1:pos:R:3:forces:R:3 energy=-30026.17587717315 pbc="T T T"
O       11.12229847       1.16113016       9.14471138      -2.05422416      -1.30058749       0.85437764
H       11.05937930       1.04297018      10.11268233       1.16554286       0.95312344      -0.18592214
H       10.34895890       0.55737601       8.97976684       0.77071394       0.47554613      -1.02337113
O        0.16060581      11.88140424       4.86908652      -0.19158371      -1.98448041       0.78372887
H        0.25686315      10.90660690       5.18954036      -0.77778448       2.74065219      -1.26628383
H       12.30749826      12.10154196       4.36073243       1.03237513      -0.97569773       0.22058627
O        5.03719553       0.98879408       9.27991615       1.31648719      -2.41911001       0.98822929
H        5.02431536       0.02292449       9.55604082       0.06265110       2.09214794      -0.64311522
H        4.13761015       1.22731012       9.09798503      -1.16410304       0.36343626      -0.47629073
O       10.48958774       7.55019408      12.74618140       1.11681016       0.08735581       3.12508357
H       10.67518606       8.45562687      12.43583378      -0.64608742      -0.28244907       0.42002727
H       10.71737789       7.54299779       0.80593160      -0.60467209       0.10661903      -3.41335568
O        3.43420187       4.23479355      11.07075767       2.65955959      -2.02311895       1.38727481
H        3.54618635       4.98283845      10.51009441       0.01039806       0.99354633      -0.86057915
H        4.31881154       3.71228397      11.10118536      -1.97726590       1.30825966       0.06120923
O       12.13709208       8.26924060       5.14472963       3.56765273       0.60181816       1.41332523
H       12.17322430       7.74339720       4.37822703      -0.88179075      -1.31733051      -2.37971556
H        0.21363043       8.33787488       5.19611274      -2.71491545       0.78765237       0.91908203
O        6.96857593      11.90484679       6.04743716      -0.56568902      -5.77490382      -0.01926888
H        7.23083616      11.03038145       5.50455426      -0.12943603       3.14297845       0.29085298
H        6.40770101      11.22628285       6.59698770       0.66572036       2.39184089      -0.26908551
O        0.46205214       0.14213700       7.99512680       0.59328724      -0.77968195      -2.65087955
H        0.37262119       0.05524610       6.95793947      -0.03777722       0.71796004       3.24343660
H       12.89941472       0.82620438       8.41883900      -0.34565554      -0.46112430      -0.72198639
O        3.42541594       6.67842807       9.71421189       4.48224047      -0.39229226       0.80481706
H        4.44910926       6.91745741       9.95080702      -3.16903915      -1.07293686      -0.53410558
H        3.15754644       7.57083252       9.63954499      -0.99571120       1.74057526      -0.05844015
O        3.16079453      11.42149527      12.09175218      -1.19552706      -1.43052591       2.19737806
H        4.07114867      11.01836807      12.17541510      -1.42198985       0.49528295       0.05219905
H        2.50122805      11.05562214      12.86133460       2.40811597       0.70585529      -2.53551414
O        6.81066945       1.35794281       2.74794317      -2.75365169      -0.05984037      -0.15799482
H        5.78480651       1.34418949       2.54801473       2.72298357      -0.25409957       1.18588543
H        7.21998803       1.58229807       1.91973321       0.67443641       0.23425220      -0.71532723
O        7.11388905       5.80258740      11.99491275      -1.19876151      -3.11918031       1.27220251
H        7.42377523       5.20281795      11.20262863      -1.68604730       1.26740997       2.47081490
H        6.51703008       5.26960011      12.70215809       2.52147078       1.59295794      -3.03926014
O        7.53638149       9.72421281       4.23114222       4.05119500       0.70192664       4.15964414
H        8.33824372       9.10560465       4.63760324      -2.64495573       1.60759780      -1.95561206
H        7.19553845       9.21646728       3.56411435      -1.64007598      -1.91269521      -2.73306230
O        1.69458471       8.90218999       6.18338279      -2.20403207      -1.60199794       1.99679600
H        2.47205187       8.60860247       5.71850061       1.00734287      -0.11946118      -0.51913148
H        1.47830998       8.14917082       6.84792353       0.99099065       1.96076970      -1.78977076
O       12.20659369       1.30590828      11.82466586       2.31917122      -0.75583754      -0.55623250
H        0.17481157       1.58425020      11.53526413      -2.46326614      -0.70623067       0.63527850
H       12.24412294       0.35762643      12.13767418       0.21894231       1.31650262      -0.06149359
O       11.19003474      12.58415210       2.85999115       0.71229847      -0.86669837      -1.86122172
H       11.37402966      12.13953741       1.93075597      -0.13439054       1.25525894       2.26732749
H       10.25249148      12.38248267       3.03028038      -0.18261467      -0.11184711      -0.27657770
O        9.71050765       5.24628403      10.92496935      -0.30534321      -5.92047969      -8.29237396
H        8.93743266       5.07623823      10.19168849       2.03888496       1.14492775       3.24726754
H        9.65415028       5.76903703      11.61565144      -1.58443730       4.68527536       4.83775722
O        5.62309049       6.30001292       1.88879222       3.59951384       1.43511790      -3.15317030
H        5.44221772       6.19888715       2.76383965      -1.08602891      -0.55475669       4.11964805
H        4.93701223       5.97557437       1.36485386      -2.33868075      -1.15904825      -0.89828695
O        8.97484602      12.16864216       8.30575383       3.42205629      -3.55366593       1.14747828
H        8.61902726      12.32321482       7.44938635      -0.68348155      -0.10381550      -1.20797635
H        9.60853573      11.23845446       8.20769729      -2.91929760       3.42349611       0.32322677
O        4.24892205       1.23372375       3.43888985      -1.50269678      -2.20069478      -3.35887400
H        4.55081765       1.85069146       4.02081016       1.13155287       2.45640129       2.51356720
H        3.78292860       1.73734170       2.71436688      -0.09588210      -0.27845204       0.60766485
O        4.08657048       8.85318712       4.92536981       0.91551334      -2.37378146      -0.33919641
H        4.53473066       7.89521762       4.72989174      -0.89836408       3.03952239       1.17972506
H        4.39084738       9.23440638       5.78390691       0.44824153      -0.77410780      -0.96584012
O        8.02937092       3.54129199       7.05858898       1.43015567      -1.87229803      -1.61884895
H        7.58596804       2.67601317       6.52845925       1.69851201       2.39356353       0.94864972
H        9.06435158       3.47384836       6.90846140      -2.71429324      -0.30135183       0.57399368
O        2.58204558       1.11809271      11.90042816       1.71493108       0.04144464      -0.55782658
H        2.76995641       0.17091048      11.75152298      -0.41293925       0.13964639       0.54302217
H        3.47690012       1.46580976      11.65300606      -1.15152006       0.04135260       0.45774536
O       10.38827782       3.06438585      12.68104392       0.85743212       1.81307009      -1.89589048
H       10.33895850       3.80704373      11.96406172      -0.43495613      -1.62773982       1.63800367
H       11.02493092       2.43186033      12.26394644      -0.01104546       0.12788462       0.57915646
O       11.83334595       7.02493383       2.49126047       3.19574263       0.57664706      -1.77555255
H       11.54327217       6.03383784       2.38923511       1.67360831       1.83953703      -0.65660323
H       12.81813098       7.29126872       1.95419852      -4.61401466      -1.99497566       2.04962703
O        5.20885586       6.32837734       4.59698360       5.73726287       1.15474422       1.22120210
H        4.57857934       5.81840927       4.98862236      -3.30541561      -2.32201486       1.27090153
H        6.06405386       6.09278765       5.24099226      -2.26567170       1.17393494      -2.43248489
O        3.71339524       9.58826771       9.63308902       4.14781192      -2.40936553       4.32349541
H        3.02477694      10.16147247       9.54725648      -3.11571961       2.37989554      -0.47952774
H        3.99274789       9.66367547      10.68324120      -0.98130273      -0.15999256      -4.20080750
O        3.35143962       5.32807472       0.75926346       2.37367347       4.71827290      -3.68679252
H        3.66502950       5.21837576      12.75772170      -1.07070000       1.01996184       1.88888165
H        3.20199997       4.46239372       0.82075385      -1.48237992      -5.99478458       1.77920866
O        7.25554926       5.09592362       9.36267947       1.15621489       0.03140243      -2.07080778
H        7.20358406       4.32369532       8.70316591       0.58957971       1.58618565       0.99968612
H        7.64317157       5.89424036       8.85080635      -1.17668088      -1.58235985       0.77803644
O       12.11435281      11.71069220       0.33142369       1.00328567      -3.12488302      -1.63564339
H       11.48459965      11.20098818      12.68384856       0.82016140       1.09012725       1.32383541
H       12.93250311      11.03837255       0.38317722      -2.37679993       2.09391171       0.30124641
O        1.43041363       7.43372270       0.33778069       2.30642369       0.23705830       6.06713543
H        1.98719801       6.87575825       1.07868541      -2.00166053       1.27335436      -3.96322212
H        1.21886392       7.00905746      12.52732482      -0.31815913      -1.77672498      -1.83593749
O        2.78620268       2.11607383       8.29088395       3.03267811      -3.01295775      -3.45239531
H        2.29978299       1.40876499       7.80266505       0.13504463       1.02740776       0.60072801
H        2.23830847       2.59887395       8.81021846      -3.25758281       2.10103367       2.72919022
O        5.55741907       2.40293974      11.59533104       1.68119820      -0.46632616       3.30057680
H        5.60779674       2.06955809      10.71906649       0.40525217      -1.13008220      -1.40768423
H        6.29482751       1.94610105      12.17626178      -2.02457420       1.59259798      -1.99316560
O        1.89132221       0.89843654       5.36003597      -1.67132002      -3.44485683      -2.17320454
H        2.79957023       0.79678160       5.10613674       1.03257053       0.47811672       0.07294015
H        1.51884443      12.96468238       4.84213023       0.43399453       3.28946963       2.20620208
O        8.78555933       5.66690583       2.65535832      -1.20202681       0.99612771       1.32843254
H        7.94183919       5.61176556       2.18551775       0.76518607      -0.15684296      -0.19285589
H        9.53042917       5.26647743       2.23097937       0.29045138      -0.57750067      -0.98110219
O       12.58896762       5.89307617       6.95762196      -2.62897375      -1.53024873      -0.43275372
H        0.49150032       6.10548790       7.11108336       2.83434320       0.32846154       0.68360496
H       12.29305172       6.60852376       6.42828600      -0.96854492       1.09282177      -0.78817688
O        7.15061236       1.53710104       5.56265792       0.31798069       4.71929620      -4.17223740
H        7.33386643       1.41433193       4.55220462      -0.68899399       0.43276915       2.25347953
H        7.18077547       0.73285752       5.94006711      -0.09348275      -4.83006962       1.83864229
O        1.20345481       3.14373597      10.26423868      -0.34307261      -0.89022911      -0.00467478
H        0.86859147       4.02660994      10.22878381      -0.71053470       0.68144523      -0.23755864
H        1.96160700       3.22151444      10.84749780       0.22829598       0.04219232       0.02325512
O        2.83972367       4.54261646       5.17323641      -0.72387358       2.62256656       0.23432676
H        3.40001650       3.84537257       5.40702690       2.01269570      -2.08294339       0.92574633
H        2.14004556       4.07514131       4.76561121      -1.50407489      -0.14413348      -0.87038533
O        9.32463216       7.83526290       4.44445356      -0.30129629       0.19543317       1.00532198
H       10.23354693       8.05677648       4.66993597       0.10864917      -0.46353291      -0.54219428
H        9.20646689       7.17373847       3.74927345       0.59777639       0.00074511      -0.61502849
O        0.94124750      11.08441097       9.79459391       2.10756942       1.28106767       0.20236177
H        1.73490748      11.35186242      10.42235683      -2.65692678      -0.53430099      -2.02607058
H        0.81763171      11.74360702       9.00479692       0.44302219      -0.74556855       1.80603556
O       10.85585933       2.37408000       3.76096827       0.36099885       0.13273270      -1.96043545
H       10.75081766       2.40949783       4.69713567      -0.15836145      -0.73460537       0.95801882
H       10.86490826       1.48294029       3.33185847      -0.00802133       0.49028318       1.08642486
O        7.64798497       7.69820494       8.03957240       0.80198370      -0.05835890      -1.13424224
H        8.51802109       8.18319585       8.24564459      -1.37960778      -0.66070157      -0.91568818
H        7.70385020       7.24755763       7.09399093       0.34664747       0.68206744       2.19822652
O        4.34888309       2.53010155       6.05151183      -6.91446825       1.83826177       4.33339416
H        5.20720853       2.46120268       5.87995258       5.92814158      -0.52426340      -0.21575671
H        4.08461199       2.78034945       7.09409677       1.16830936      -1.59170838      -3.85518436
O        8.62960975      12.05569934       2.76455404       4.15400313      -7.67885728       1.04573458
H        7.98893490      12.63293642       2.78650960      -5.56196504       4.94330101       0.25459682
H        8.25198889      11.16932222       3.17806370       0.95146251       2.47866705      -1.01342610
O        5.73379383      10.03632259      11.86828064      -0.89713509       1.14268575       0.54050249
H        5.88603811       9.23150226      11.37238868       0.32266370      -0.91052540      -0.65938002
H        5.59520232       9.71360387      12.77089821       0.77867408      -0.09346526       0.37771514
O        2.03424610       6.33033477       7.33476656      -5.91595455      -1.31150954     -12.10053798
H        2.47962810       6.32594260       8.01768034       7.24182113      -0.26545665      10.91947595
H        2.34178802       5.59541346       6.70541611      -0.35713963       1.35499718       0.95194073
O        9.91207125       9.30806838       8.01931020       2.96635393       1.15120124      -2.53517476
H       10.29297300       9.49163995       7.01683689      -1.23145566      -1.04933413       4.17443826
H       10.75600306       9.23128477       8.66765812      -1.31334016       0.06335404      -1.60996836
O        5.63764180       9.66536830       7.25337911       2.12943408      -2.42398482       0.65212437
H        6.35356565       8.91584170       7.45462520      -1.53506697       2.10832018      -0.76391594
H        5.13349467       9.58699716       8.06300966      -0.64367572       0.46985577       0.40023852
O        0.78381887       2.86210839       3.56083345       3.85302463       2.30524613      -1.38120701
H       12.88985884       2.64429905       3.52098641      -3.73522182      -1.11829112       0.15713658
H        1.25653287       2.34261512       4.18727343       0.12272699      -1.54832872       1.09230755
O       11.31716375       4.52888378       1.93763527      -0.15082041      -0.06361064      -4.87931139
H       11.12992497       4.02972150       2.67505959      -0.57215791      -2.39641231       2.61774317
H       11.13474578       3.89538987       1.08776609       0.23714006       1.75051001       2.17572422
O        7.87029284      11.79477793      10.91417413      -0.97681873      -1.01797695       0.92283070
H        7.11748534      11.19458514      11.20474534       1.02987088       1.05239888      -0.78135317
H        7.93257700      11.87082069       9.94869031      -0.11786143      -0.19016138       0.10850570
O       10.14172940      10.28085538      11.53876199      -0.48476405       0.36847099       0.96869404
H       10.81386383       9.95064880      10.88914405      -1.68607302       0.65214494      -0.36203809
H        9.17638316      10.64260092      11.38000883       2.84563549      -0.69561201      -0.78004705
O        5.90307815       8.94425905       1.55468031       0.02631730      -2.76329333      -0.71055527
H        5.01712966       9.28420249       1.68369371      -0.25253120       0.04335086       0.48162782
H        5.80851418       7.87585026       1.51175875       0.20419497       2.92034147       0.44387991
O       11.98395772       9.13624348       9.68558340       3.53423353      -0.87795980       1.10145039
H       12.23658692       8.19171508      10.10569719      -0.38020037       2.64882781      -0.98443434
H       12.93938718       9.70521482       9.65626699      -3.20036033      -1.43674798       0.27284395
O        1.28251442      10.03510495       0.95112724       0.80919307       2.76312364       1.01056703
H        1.33612007       9.11846419       0.90316262      -0.39743087      -3.26391801      -1.48570693
H        1.85333787      10.12437715       1.72791176      -0.04150018       1.01235138       0.26378852
O        3.79474512      10.51602173       2.74182588      -3.51115016       4.91371790      -7.50258243
H        4.08300912      10.00721784       3.38853335       2.83075908      -2.53427487       5.68954319
H        4.01877759      11.45398833       2.47866605       0.31721450      -2.25829264       1.87205121
O        2.82349433       2.54587156       1.58312888      -3.77970191       0.17810701       1.30896414
H        2.59902794       1.94890675       0.83652333       0.09234889       0.42634961       0.38736552
H        1.85332200       2.68441015       2.14654385       3.33629971      -0.50253089      -1.76210568
O        7.77132136       6.04103412       6.00822513       0.75053078       0.55635591      -1.58786201
H        7.97318659       5.14910593       6.34203012      -0.28249741      -0.69177593       0.26766214
H        8.46953894       6.23862889       5.31897181      -1.21221353      -0.07312424       1.14737544
O       10.93768018       2.98467589       6.89496738       0.45610294      -0.77228231       1.26902977
H       11.67362810       3.64209390       6.83474702      -0.91122474      -1.06601545       0.68027281
H       11.01458551       2.35250492       7.72011341       0.29014079       2.07799658      -1.90615432
O       12.82270360       6.83781571      11.11873817       3.46932345       1.17130727      -1.45054966
H       12.60881017       6.25053485      10.39562280      -0.58468947      -1.22376292      -0.53533457
H       12.13630784       6.94582078      11.70220896      -3.03910587      -0.00609609       2.20968850
O       12.06021375       5.10506833       9.33204011       2.05105656      -0.41663856       0.73988641
H       11.20035370       5.03078243       9.72066785      -1.01648571       0.26115777      -0.33379452
H       12.21997235       5.45280126       8.43439681      -1.25219932       0.01136222      -0.12185899
O        8.14901312       1.66892015       0.25707429      -3.68939962      -2.23126520      -0.14358841
H        8.98611855       1.99812129       0.29194707       3.72428949       2.60713480       0.13346238
H        8.35242831       0.80995917      12.86763181      -0.55999660      -0.56360128      -0.11307095
O        6.08701962       7.72535226      10.66307955      -2.97804217       3.27630558      -3.11155956
H        6.36086882       7.64041932       9.74231120       0.81036550      -0.32997438       0.55384137
H        6.47654696       7.18522108      11.28359274       2.07149169      -2.92616759       1.83059988
