192
Lattice="10.729868 0.111006 0.062511 0.129682 12.493648 -0.041018 0.088102 -0.049536 15.187165" Properties=species:S:1:pos:R:3:forces:R:3 energy=-1104.27307111 pbc="T T T"
Li       1.46128000      12.01337000       2.46711000      -0.18336200      -0.83593700      -0.18493300
Li       3.21268000       2.53487000       9.21189000       2.16633100      -1.62963400      -3.23514500
Li       7.11757000      11.39170000      13.69549000       0.22992900       0.05851800      -0.41991600
Li       3.30215000       0.88796000       2.39573000       0.74080100      -0.02088200       1.91440100
Li       8.64210000       6.18027000       9.10425000       0.54099800      -0.63803600       0.27458900
Li       3.99089000       9.48890000       3.22600000       0.54902700       0.44008400       0.04780300
Li       1.97635000      10.11229000      11.70285000       0.21083500       0.52721000       0.80044100
Li       8.89300000       8.40712000      15.08643000       0.36047500      -0.17156000      -1.76704500
Li       6.51117000      12.12826000       5.13838000      -0.97174100      -0.38677400      -0.37168200
Li       9.39026000      10.39939000       0.98432000      -1.24358200       0.35223800      -0.35421400
Li       5.11948000       6.31910000       4.81514000      -0.06114500      -0.70754800      -1.12399400
Li       3.56316000       4.83021000       1.27953000       1.49462700      -0.85829900      -0.32095700
Li       4.44411000       2.27079000      14.85755000       1.42950300       1.96047300      -1.31323000
Li       4.58020000       8.86505000      11.06048000      -1.03433200      -0.35482600       0.55198000
Li       6.27635000       8.79544000      13.77176000       0.08382500       0.29697400       0.28542000
Li      10.78119000       8.39699000       2.24604000      -1.01315900       1.13151700      -1.50262600
Li       7.97379000       1.06879000      13.90054000      -1.41187900       0.27786900       0.82182400
Li       7.82459000       5.58893000      14.41370000      -0.19875300      -0.92480400      -0.63669600
Li      10.81930000      12.22101000      15.16590000      -1.11546900       1.17885900      -1.05651700
Li       2.92725000      12.17149000      14.58923000       0.37293000      -1.01146100      -0.85654900
Li       3.42516000       9.21237000       0.15208000       4.21141100       0.90745300      -3.45927400
Li       5.71840000       6.12409000      11.05604000      -0.53786800      -0.66192300       0.19157800
Li       7.59176000       4.51841000      11.80290000      -0.97710500       0.15943300       0.83879900
Li       6.05840000       5.69409000       7.23973000       0.84962300      -0.99336900      -0.08112000
Li      10.73656000       7.50418000       8.64476000       0.40296100      -0.87046900       1.08875200
Li       8.70646000       6.19600000       6.26548000       1.87285700      -1.16067900       0.53628500
Li       7.88730000       0.72191000       3.62943000      -0.00951800       1.51295300      -0.75489700
Li       0.28235000      10.13116000       9.61097000       1.18222000       0.98737900       0.83544000
Li       7.63153000       9.54496000       2.99099000       0.07281800      -0.56698700       0.47043400
Li       2.25023000       9.30644000       7.03316000      -2.53754400       0.20776500      -0.17901900
Li       6.67660000       3.86465000       4.89268000      -0.20439600       1.32038600      -0.94415400
Li       7.39940000       8.19528000       6.13423000      -0.84478300       0.06608200       0.33402300
Li       1.25434000       3.53231000      13.96817000       0.90763700      -0.28699000       1.13180200
Li       8.98151000      12.28620000       9.63127000       0.10053400      -0.79019900      -0.05881900
Li       2.70255000       1.82021000       5.87265000      -0.61728100      -1.51930800       0.72647200
Li       7.79785000       2.55596000       6.42837000      -0.24803600       1.40262600       1.28596500
Li       5.80663000       4.62223000       0.56988000       2.47732700      -3.02365300       2.37555700
Li       9.76208000       0.75225000       6.64799000       1.14795700       2.30319000      -3.27722500
Li       3.66680000       3.27785000      11.14610000       0.37533600       0.18230900       0.53478100
Li       7.60330000      10.12083000       7.60298000       0.05091100       1.13312700       0.31920700
Li       3.28900000       6.26512000       9.44027000       1.36784800      -1.63531200      -0.84446200
Li       1.50280000       7.23634000      13.49295000       0.62986900       0.65576500       0.06210200
Li       3.05393000       6.70307000       6.19233000      -0.29635900       0.23059700      -0.21424100
Li       8.31005000       0.67319000       7.73137000      -1.33731500       0.11862000       1.37671200
Li       9.51243000       2.97714000      12.33110000      -1.29804400       1.21509800      -1.36470900
Li       1.17016000       5.01708000       8.72546000      -0.59611500      -1.56619300      -0.41496200
Li      10.58612000       5.66567000       3.88833000      -1.71756300      -0.38812100      -0.00394800
Li       1.43333000       5.34308000       0.80991000       0.14267200      -0.04167600       0.63773400
Li       8.67667000       4.39950000       1.91744000      -0.17830900       0.08471300       0.68442800
Li       0.97090000       0.58342000       4.64851000       0.08917400      -0.58859000      -0.26971800
Li       3.43250000       7.67103000       1.79082000       0.88159700      -0.54197600      -0.45791200
Li      10.85302000       6.00934000      11.68907000      -0.97647700       0.70382400       0.58373300
Li       4.34741000       9.69604000       5.75439000      -0.34677500      -3.34684600       2.51271100
Li      10.05680000       1.80868000       2.26051000      -0.47948400       1.23590600      -0.54980700
Li       7.05892000       8.12948000       9.64170000      -0.16044500       0.04480300      -2.91502400
Li       1.38954000       2.90259000       2.38609000       0.19127100       1.48950000       1.35947200
Li       5.06712000       2.51648000       5.77590000       0.15327700      -0.72950000       0.19689800
Li       6.22030000       3.29638000       9.38985000      -0.87406200       0.66379200       0.68152500
Li      10.29795000       9.06007000      12.01118000      -0.39702100       0.12476200       0.76029500
Li      10.45537000       2.15098000      13.65301000       0.21640400      -1.73542700       1.52096300
Li       8.36729000       1.54369000      11.07327000      -0.34605800       0.55910300       0.29340900
Li       3.51017000       5.00844000      13.33175000       0.38941300       0.22177500       0.28920900
Li       2.57019000       3.77009000       4.93730000       0.69319800      -0.07751900      -0.20722700
Li       0.80920000       8.68063000       4.59855000       0.26016400       0.38697100       0.19146000
Li       5.83958000       0.95323000       1.55695000      -1.59156100      -0.73901400       1.61894400
Li       0.33868000       2.73896000       7.28923000      -0.99564700       1.72286000       0.23997400
Li       7.50705000       7.27857000       1.02915000      -1.18475500      -0.48657000       1.52531800
Li       0.52770000      10.76031000       6.71581000      -0.12356900       0.20820500      -0.27797200
Li       1.59736000       0.95415000      12.44727000      -0.44950200       0.56059200      -0.75329000
Li       3.35152000      11.04574000       8.57781000       0.67263400       0.58444500       0.83715000
Li       5.85167000       0.70005000      10.97292000       0.06423700      -0.43253100      -0.31910400
Li       6.74687000      10.28072000      11.05566000       0.03547800       1.76837500       0.40733700
O        9.97217000       4.41463000       6.39408000       2.37532100      -2.00691000      -4.85838400
O        3.91926000       7.23877000      14.64259000       1.85416400      -0.20491500      -0.12208900
O        8.15051000       8.12555000       4.55964000       1.12310000      -1.58689500       0.23641400
O       10.04847000       4.69148000       8.75618000      -0.91505900       1.15515500      -0.10168800
O        6.54302000       6.93890000      14.48048000       1.77005900       1.15284500      -2.13125600
O       10.51979000       3.62001000       3.37552000      -1.68485500       0.20985800       2.28064000
O        7.54672000       4.12516000       8.53357000       0.55978800       0.64791600      -0.79880800
O        8.61084000       6.00848000       3.01588000       4.05059200      -2.21944600      -1.09125700
O        9.09068000       2.29233000       5.43068000       2.04746800      -0.35825900      -2.17011900
O        5.49645000       6.18177000       1.38723000      -1.69706000       0.95871000      -3.08920400
O        7.25625000       3.61787000       0.46385000       3.70719200       1.03173000      -1.72252800
O        9.33597000       0.63761000      13.00250000       1.79373500      -0.53600000      -4.49226400
O        8.74172000       3.71797000      10.79961000       0.34273500      -2.05806000      -4.16938000
O        7.53411000       5.57357000       5.25282000      -2.00268300       2.22127100      -2.93225500
O        4.66700000       4.80198000      14.77404000      -2.12048000       3.56397400      -1.92339900
O        0.82133000       2.29472000       5.02431000       4.64233000      -1.80699800       2.61332200
O        3.09872000       2.72097000       3.39721000       2.68724800      -0.27866300      -0.98937200
O        3.79409000       2.60069000       7.18241000      -0.85863000       1.72562500       0.21061200
O        3.71261000       8.76224000       7.20072000       3.53313500      -2.61297500       3.21601100
O        9.01418000      11.06611000      14.13395000       0.49292100       0.99112600      -3.61610500
O        5.18518000       4.34608000       6.27688000       0.00357400       0.74155800       1.17384100
O        5.54171000       1.73342000       3.95880000      -0.78792200       2.65630100       0.36356400
O        8.07239000      11.50502000      11.51403000       1.49159600       0.10651200      -1.28817200
O        6.08251000       9.24679000       7.57117000       0.44124800      -1.83694200       2.10794300
O        4.78411000       4.46116000       3.82181000       1.49985300      -1.69691300      -1.39130000
O        2.75784000       4.93788000       7.07149000       0.81899400       0.31771800       0.76227800
O        6.72564000       7.34393000       2.86511000      -1.10098800       0.59887100       2.06005900
O        9.33762000       6.32159000       0.38661000       0.56976000      -2.70990200      -3.01072500
O       10.69384000      10.88793000      11.90792000      -2.18008100       0.96483100      -0.92282800
O        4.97880000       7.09549000       8.93925000       1.62166500       1.30013100       0.39711500
O        4.71909000       4.50555000       8.81884000      -1.49863300       0.30912500      -1.10876300
O        5.29851000       2.80741000       1.74177000      -0.65572600       1.45280700      -2.21109700
O        6.30390000       3.76640000      13.35895000       0.62415400       1.64685200       1.56807400
O        2.39773000       3.22922000       0.46990000       0.81283400       2.17816600       1.50719300
O        7.07695000       1.14942000       0.56900000      -0.70942700      -2.84707200      -4.15841800
O        9.78617000       4.59027000      13.29827000      -0.31483200      -0.02773000       2.82815600
O        1.42080000       1.45609000      14.50196000       0.52594300      -1.67549900       0.22873400
O        6.79055000       1.91286000      12.21731000      -1.05953400      -2.68439300      -2.09266500
O        1.11556000       5.51933000      14.29357000      -3.37994200      -0.82029800       0.96727400
O        7.91638000       2.41382000       2.33609000       3.26695100      -0.27831000       0.78182800
O        5.32958000       3.96493000      11.21326000       0.50274900      -0.87528800      -0.40798900
O        3.94419000       1.06130000       0.71041000      -6.27325300      -0.96002400      -0.64080600
O        5.34199000       7.17032000       6.41301000       0.69171100      -0.07926000       1.06361600
O        9.47468000       2.32712000       8.46973000      -2.05845600      -1.07343300      -0.86803200
O       10.33655000       3.92277000       0.85079000       0.56827300       3.22848900      -3.85794800
O        9.39358000       1.65857000      15.21064000       0.10488300       1.56076700       0.67434700
O        1.41960000       1.19274000       1.84671000       0.90818900       0.52108400      -2.07681700
O        4.07323000       2.45245000      12.75960000       2.86729900      -1.82995300       0.64171500
O        0.81062000       7.36943000       3.31775000      -0.05667600      -3.53822000       0.55022800
O        0.54749000      11.40979000       3.95553000      -0.60206800      -1.85571500       1.57767100
O        2.25937000      12.28746000       6.02371000       0.44153500      -2.04633300      -0.96519600
O        5.96793000      10.84435000      14.85643000      -1.27541200       1.18316200      -2.52808700
O        9.72416000       0.35419000       3.07581000      -2.21945700       1.67342500      -3.48386600
O        1.65533000       5.07691000       4.41873000      -1.22704800       2.54145900      -1.86723300
O        7.55160000       9.40892000       0.65347000      -2.25388900       0.59760700       2.51832800
O        2.38615000       9.59597000       5.17278000       0.21150700       5.06001600      -1.21895600
O        2.99083000       7.27917000       4.32039000       0.28377100      -2.13811900      -0.95362700
O        9.64660000      10.02560000       2.98740000      -1.13779700       1.14455600      -1.63631100
O        2.97712000       0.06689000      12.79391000       2.87890500      -1.44364500       1.42704300
O        6.60269000       1.53791000       7.14123000      -1.35655900      -2.97953600       0.03662800
O        4.78402000       9.32331000       1.32509000       3.12674200       1.83532700       0.70737600
O        2.84002000      12.36504000       3.71286000      -0.43878900      -0.80013200      -1.59796400
O        8.68529000      11.60456000       4.74899000      -1.46244300       0.58034000      -0.25331800
O        2.62524000       5.98459000       2.16299000      -1.21489600      -0.62482900      -1.28921400
O       10.56354000       0.62750000       9.94615000       1.04759400      -1.42002000      -1.25992200
O       10.23931000       9.35248000       8.49270000      -1.21272900      -1.72282400      -1.48186400
O        2.16437000       2.70210000      10.34941000      -0.49056300       1.83280900       1.99583900
O        5.23703000       1.82463000       9.24423000      -0.31666800      -3.66266600      -1.03925100
O        0.30981000       8.28431000       6.36303000       0.31270200      -1.18600300      -0.02661700
O        1.56006000      11.28843000       8.61141000      -0.95319400       1.40574600      -0.78684100
O        4.85109000      12.01817000       7.61927000       1.72730100       2.09384900       0.55337400
O        2.34951000       3.81463000      12.70741000      -1.83600000       1.65168000      -3.72569800
O        1.20285000       1.37042000       7.72001000      -0.46232600      -3.22165100       2.01320100
O        8.74490000       7.34063000       7.66357000       2.04300800       0.96629600      -0.17954800
O        4.55402000      10.88134000       4.81141000      -2.18945900       3.84438600      -2.27193000
O        8.85438000       7.91675000      10.39525000      -0.12676500       1.12568900      -0.91307400
O        7.06831000      12.37972000       9.18438000      -0.95056500       0.81528200      -2.66482000
O        0.79730000       4.76620000      10.57092000       1.80505900      -1.97520600       3.01060000
O        8.70991000       9.41130000       6.41249000       0.43655400       1.88889600       0.71008200
O       10.09386000      12.02454000       7.63053000       0.85103900       0.41287800       2.22150700
O        3.32470000       7.00815000      11.10897000      -1.94202000       1.12548500      -0.93688600
O       10.35600000       9.05792000       0.32325000       4.32310500       0.77516100       0.61729300
O        5.74687000      11.60740000      12.04179000      -3.20436000      -0.12110700       0.11923200
O        6.49033000       8.49249000      11.23362000      -2.81503300       0.12669500      -1.52001000
O        1.57539000       9.39672000      13.63625000      -1.46976300      -3.13778200       1.78825800
O        1.46428000       6.58937000       9.20227000       2.38574900       5.19855300       1.96992400
O        7.74247000       6.41856000      11.85221000      -1.16570600      -0.77243600       0.42881200
O        3.40035000      11.65891000      10.62797000       2.58586800      -2.28646300       1.11966800
O        2.26462000       9.05019000      10.03294000       1.67253500       5.31132700      -2.71655000
O        1.34725000      11.05576000       0.13304000      -0.25900400       1.14613100       2.43917300
O        0.43271000       2.54353000      11.83489000      -2.73856800      -2.32112400       3.36792100
O        6.33531000      11.36813000       2.25973000       0.52929500      -2.73625100      -2.42496900
O        8.19062000       8.86534000      12.75697000       1.66816600      -0.65765200       0.64457400
O        3.66620000      10.11628000      13.03017000       2.84417300       2.12737600      -3.59344500
O        2.22373000       8.81541000       1.02514000      -6.35476900       0.48309800       0.35631600
O        0.87985000       7.83082000      11.40010000      -3.34763500      -1.65405700       3.26841700
P       10.36980000       3.24946000       4.96353000      -6.70994000       3.36536100       0.74634100
P        5.23498000       6.43629000      15.01307000      -5.62496100      -2.99333800       3.99824100
P        7.72940000       6.77726000       3.90940000      -2.13075200       0.64046900       0.46414800
P        8.95052000       3.65696000       8.99992000       0.84557400       1.52912300       4.11121100
P        4.77958000       3.05309000       3.08735000      -2.73678600      -1.29240400       6.05133800
P        4.09686000       4.19951000       7.43614000       0.09352800      -2.98452200      -2.23508100
P        5.10600000       8.01563000       7.72336000      -3.39353900       3.27734200      -4.76291600
P        9.34369000      11.62791000      12.33768000       2.50397400      -0.43615600       7.69955100
P        5.51764000       2.86484000      12.44384000       3.48179300       3.71592300      -0.24543600
P        2.23678000       1.73589000       0.57975000       0.03198500      -1.17420300      -1.14110700
P        8.01981000       2.27884000       0.75711000      -1.99230100       1.56971800       3.22819700
P       10.23978000       4.97855000      14.78962000       0.85563900       3.32652300       2.30601700
P        1.97001000       6.28872000       3.49263000       3.13455700       4.03375400       4.32798000
P        9.70286000      11.47465000       3.58298000       3.80986400      -2.74683600       4.22678200
P        2.79693000      11.35541000       4.85838000       3.74041700      -2.61354400       2.34896800
P        6.16722000      10.31482000       0.97685000      -0.92188700      -1.89189900       4.79074000
P        0.59280000       0.14402000       8.53899000      -1.57117900       0.04035300       0.58411300
P        9.73248000       8.61768000       7.17899000      -2.32614500       1.81876800       0.76288600
P        1.40505000       3.58209000      11.42784000       1.70923700       0.42613100      -3.19936600
P        5.68478000       0.63001000       8.19204000       1.59547500       1.45826600       3.26226900
P        1.97378000       7.70946000      10.42147000       1.94518500      -7.32018100       0.09815500
P        1.23722000       9.48082000      15.15774000      -0.57813000      -1.39818500      -0.93673600
P        4.10458000      11.48506000      12.10985000      -2.95718800      -0.43358000       0.15307100
P        7.89306000       7.92750000      11.59246000       1.12150600      -1.99757800       3.13835500
